                         Program Version 4.1.2  - RELEASE  -
|  1> #Run DFT-D3 single point of the dimer
|  2> ! wB97X-D3 def2-TZVP TIGHTSCF CHELPG PMODEL PAL8
|  3>
|  4> %base "4-44_DFT_AB"
|  5>
|  6> %scf
|  7> MaxIter 1000
|  8> end
|  9>
| 10> * xyz 0 1
| 11>   C                      -5.908820            9.914225             2.928473
| 12>   O                      -5.230822            9.218383             3.952010
| 13>   H                      -5.789429            8.456262             4.113283
| 14>   H                      -5.594980            9.513840             1.948550
| 15>   H                      -6.928582            9.598080             2.978379
| 16>   H                      -5.841982            11.018729            3.005331
| 17>   C                      -10.148175           9.764581             3.812299
| 18>   O                      -11.272978           9.630091             2.946483
| 19>   H                      -11.896324           10.366468            3.030621
| 20>   H                      -9.654476            8.845008             4.103845
| 21>   H                      -9.394818            10.511525            3.454204
| 22>   H                      -10.493760           10.026972            4.786916
| 23> *
| 24>
| 25> #Run DFT-D3 single point of the molecule with dimer basis set
| 26> $new_job
| 27> %base "4-44_DFT_A"
| 28> ! wB97X-D3 def2-TZVP TIGHTSCF CHELPG PMODEL
| 29>
| 30> %scf
| 31> MaxIter 1000
| 32> end
| 33>
| 34> * xyz 0 1
| 35>   C                      -5.908820            9.914225             2.928473
| 36>   O                      -5.230822            9.218383             3.952010
| 37>   H                      -5.789429            8.456262             4.113283
| 38>   H                      -5.594980            9.513840             1.948550
| 39>   H                      -6.928582            9.598080             2.978379
| 40>   H                      -5.841982            11.018729            3.005331
| 41>   C                    : -10.148175           9.764581             3.812299
| 42>   O                    : -11.272978           9.630091             2.946483
| 43>   H                    : -11.896324           10.366468            3.030621
| 44>   H                    : -9.654476            8.845008             4.103845
| 45>   H                    : -9.394818            10.511525            3.454204
| 46>   H                    : -10.493760           10.026972            4.786916
| 47> *
| 48>
| 49> #Run DFT-D3 single point of the particle with dimer basis set
| 50> $new_job
| 51> %base "4-44_DFT_B"
| 52> ! wB97X-D3 def2-TZVP TIGHTSCF CHELPG PMODEL
| 53>
| 54> %scf
| 55> MaxIter 1000
| 56> end
| 57>
| 58> * xyz 0 1
| 59>   C                    : -5.908820            9.914225             2.928473
| 60>   O                    : -5.230822            9.218383             3.952010
| 61>   H                    : -5.789429            8.456262             4.113283
| 62>   H                    : -5.594980            9.513840             1.948550
| 63>   H                    : -6.928582            9.598080             2.978379
| 64>   H                    : -5.841982            11.018729            3.005331
| 65>   C                      -10.148175           9.764581             3.812299
| 66>   O                      -11.272978           9.630091             2.946483
| 67>   H                      -11.896324           10.366468            3.030621
| 68>   H                      -9.654476            8.845008             4.103845
| 69>   H                      -9.394818            10.511525            3.454204
| 70>   H                      -10.493760           10.026972            4.786916
| 71> *
| 72>
| 73>                          ****END OF INPUT****
 Total Charge           Charge          ....    0
 Multiplicity           Mult            ....    1
 Number of Electrons    NEL             ....   36
Dispersion correction           -0.001197055
FINAL SINGLE POINT ENERGY      -231.460490440463
Dispersion correction           -0.000218551
FINAL SINGLE POINT ENERGY      -115.730661606012

CARTESIAN COORDINATES (ANGSTROEM)
---------------------------------
  C     -5.908820    9.914225    2.928473
  O     -5.230822    9.218383    3.952010
  H     -5.789429    8.456262    4.113283
  H     -5.594980    9.513840    1.948550
  H     -6.928582    9.598080    2.978379
  H     -5.841982   11.018729    3.005331
  C    -10.148175    9.764581    3.812299
  O    -11.272978    9.630091    2.946483
  H    -11.896324   10.366468    3.030621
  H     -9.654476    8.845008    4.103845
  H     -9.394818   10.511525    3.454204
  H    -10.493760   10.026972    4.786916

 Multiplicity           Mult            ....    1
 Number of Electrons    NEL             ....   18
 Basis Dimension        Dim             ....  172

ORBITAL ENERGIES
----------------

  NO   OCC          E(Eh)            E(eV)
   0   2.0000     -19.229800      -523.2695
   1   2.0000     -10.313475      -280.6439
   2   2.0000      -1.127879       -30.6911
   3   2.0000      -0.800653       -21.7869
   4   2.0000      -0.608862       -16.5680
   5   2.0000      -0.545779       -14.8514
   6   2.0000      -0.524891       -14.2830
   7   2.0000      -0.420036       -11.4298
   8   2.0000      -0.376147       -10.2355
   9   0.0000       0.086346         2.3496
  10   0.0000       0.116407         3.1676
  11   0.0000       0.151571         4.1245
  12   0.0000       0.159311         4.3351
  13   0.0000       0.190105         5.1730

MULLIKEN ATOMIC CHARGES
-----------------------
   0 C :    0.001333
   1 O :   -0.000010
   2 H :   -0.000056
   3 H :   -0.000136
   4 H :   -0.002595
   5 H :   -0.000118
   6 C :   -0.158459
   7 O :   -0.485972
   8 H :    0.320807
   9 H :    0.119794
  10 H :    0.104613
  11 H :    0.100799
Sum of atomic charges:    0.0000000

LOEWDIN ATOMIC CHARGES
----------------------
   0 C :   -0.001393
   1 O :   -0.000009
   2 H :   -0.000051
   3 H :   -0.000013
   4 H :   -0.002604
   5 H :   -0.000103
   6 C :   -0.379109
   7 O :   -0.091087
   8 H :    0.173130
   9 H :    0.107910
  10 H :    0.102068
  11 H :    0.091261

  Mayer bond orders larger than 0.1
B(  6-C ,  7-O ) :   0.9965 B(  6-C ,  9-H ) :   0.9683 B(  6-C , 10-H ) :   0.9729
B(  6-C , 11-H ) :   0.9814 B(  7-O ,  8-H ) :   0.8921

Dispersion correction           -0.000263626
FINAL SINGLE POINT ENERGY      -115.729163172186

DIPOLE MOMENT
-------------
                                X             Y             Z
Electronic contribution:     -1.36580      -0.30794      -1.26022
Nuclear contribution   :      1.40532       0.81792       1.71953
                        -----------------------------------------
Total Dipole Moment    :      0.03951       0.50998       0.45931
                        -----------------------------------------
Magnitude (a.u.)       :      0.68747
Magnitude (Debye)      :      1.74740

Rotational constants in cm-1:     4.482943     0.799506     0.785915
Rotational constants in MHz : 134395.243847 23968.572698 23561.142331

                             ****ORCA TERMINATED NORMALLY****
TOTAL RUN TIME: 0 days 0 hours 1 minutes 20 seconds 862 msec
