                         Program Version 4.1.2  - RELEASE  -
|  1> #Run DFT-D3 single point of the dimer
|  2> ! wB97X-D3 def2-TZVP TIGHTSCF CHELPG PMODEL PAL8
|  3>
|  4> %base "20-102_DFT_AB"
|  5>
|  6> %scf
|  7> MaxIter 1000
|  8> end
|  9>
| 10> * xyz 0 1
| 11>   C                      9.120961             -6.849547            -2.911448
| 12>   O                      8.104281             -5.987390            -3.377930
| 13>   H                      7.520534             -6.399815            -3.979803
| 14>   H                      9.537305             -6.457883            -1.999201
| 15>   H                      8.666208             -7.838895            -2.838411
| 16>   H                      9.986982             -7.033741            -3.580794
| 17>   C                      9.492134             -4.067995            -5.637031
| 18>   O                      10.793203            -3.694952            -5.312607
| 19>   H                      10.904339            -3.547734            -4.365775
| 20>   H                      9.148676             -3.573289            -6.555278
| 21>   H                      9.361102             -5.168756            -5.751145
| 22>   H                      8.743176             -3.656252            -4.911386
| 23> *
| 24>
| 25> #Run DFT-D3 single point of the molecule with dimer basis set
| 26> $new_job
| 27> %base "20-102_DFT_A"
| 28> ! wB97X-D3 def2-TZVP TIGHTSCF CHELPG PMODEL
| 29>
| 30> %scf
| 31> MaxIter 1000
| 32> end
| 33>
| 34> * xyz 0 1
| 35>   C                      9.120961             -6.849547            -2.911448
| 36>   O                      8.104281             -5.987390            -3.377930
| 37>   H                      7.520534             -6.399815            -3.979803
| 38>   H                      9.537305             -6.457883            -1.999201
| 39>   H                      8.666208             -7.838895            -2.838411
| 40>   H                      9.986982             -7.033741            -3.580794
| 41>   C                    : 9.492134             -4.067995            -5.637031
| 42>   O                    : 10.793203            -3.694952            -5.312607
| 43>   H                    : 10.904339            -3.547734            -4.365775
| 44>   H                    : 9.148676             -3.573289            -6.555278
| 45>   H                    : 9.361102             -5.168756            -5.751145
| 46>   H                    : 8.743176             -3.656252            -4.911386
| 47> *
| 48>
| 49> #Run DFT-D3 single point of the particle with dimer basis set
| 50> $new_job
| 51> %base "20-102_DFT_B"
| 52> ! wB97X-D3 def2-TZVP TIGHTSCF CHELPG PMODEL
| 53>
| 54> %scf
| 55> MaxIter 1000
| 56> end
| 57>
| 58> * xyz 0 1
| 59>   C                    : 9.120961             -6.849547            -2.911448
| 60>   O                    : 8.104281             -5.987390            -3.377930
| 61>   H                    : 7.520534             -6.399815            -3.979803
| 62>   H                    : 9.537305             -6.457883            -1.999201
| 63>   H                    : 8.666208             -7.838895            -2.838411
| 64>   H                    : 9.986982             -7.033741            -3.580794
| 65>   C                      9.492134             -4.067995            -5.637031
| 66>   O                      10.793203            -3.694952            -5.312607
| 67>   H                      10.904339            -3.547734            -4.365775
| 68>   H                      9.148676             -3.573289            -6.555278
| 69>   H                      9.361102             -5.168756            -5.751145
| 70>   H                      8.743176             -3.656252            -4.911386
| 71> *
| 72>
| 73>                          ****END OF INPUT****
 Total Charge           Charge          ....    0
 Multiplicity           Mult            ....    1
 Number of Electrons    NEL             ....   36
Dispersion correction           -0.002012591
FINAL SINGLE POINT ENERGY      -231.467043565585
Dispersion correction           -0.000248629
FINAL SINGLE POINT ENERGY      -115.732084486733

CARTESIAN COORDINATES (ANGSTROEM)
---------------------------------
  C      9.120961   -6.849547   -2.911448
  O      8.104281   -5.987390   -3.377930
  H      7.520534   -6.399815   -3.979803
  H      9.537305   -6.457883   -1.999201
  H      8.666208   -7.838895   -2.838411
  H      9.986982   -7.033741   -3.580794
  C      9.492134   -4.067995   -5.637031
  O     10.793203   -3.694952   -5.312607
  H     10.904339   -3.547734   -4.365775
  H      9.148676   -3.573289   -6.555278
  H      9.361102   -5.168756   -5.751145
  H      8.743176   -3.656252   -4.911386

 Multiplicity           Mult            ....    1
 Number of Electrons    NEL             ....   18
 Basis Dimension        Dim             ....  172

ORBITAL ENERGIES
----------------

  NO   OCC          E(Eh)            E(eV)
   0   2.0000     -19.231437      -523.3140
   1   2.0000     -10.316374      -280.7228
   2   2.0000      -1.140643       -31.0385
   3   2.0000      -0.793348       -21.5881
   4   2.0000      -0.615091       -16.7375
   5   2.0000      -0.544667       -14.8211
   6   2.0000      -0.527142       -14.3443
   7   2.0000      -0.420412       -11.4400
   8   2.0000      -0.375347       -10.2137
   9   0.0000       0.079425         2.1613
  10   0.0000       0.120674         3.2837
  11   0.0000       0.143742         3.9114
  12   0.0000       0.174071         4.7367
  13   0.0000       0.184708         5.0262

MULLIKEN ATOMIC CHARGES
-----------------------
   0 C :    0.000899
   1 O :   -0.001926
   2 H :   -0.000988
   3 H :   -0.000160
   4 H :    0.000309
   5 H :    0.000109
   6 C :   -0.160752
   7 O :   -0.473577
   8 H :    0.321735
   9 H :    0.113854
  10 H :    0.101782
  11 H :    0.098715
Sum of atomic charges:   -0.0000000

LOEWDIN ATOMIC CHARGES
----------------------
   0 C :   -0.002812
   1 O :   -0.004687
   2 H :   -0.001820
   3 H :   -0.000055
   4 H :   -0.000016
   5 H :   -0.000612
   6 C :   -0.408298
   7 O :   -0.061902
   8 H :    0.173816
   9 H :    0.104614
  10 H :    0.100410
  11 H :    0.101362

  Mayer bond orders larger than 0.1
B(  6-C ,  7-O ) :   1.0125 B(  6-C ,  9-H ) :   0.9710 B(  6-C , 10-H ) :   0.9713
B(  6-C , 11-H ) :   0.9829 B(  7-O ,  8-H ) :   0.8934

Dispersion correction           -0.000260033
FINAL SINGLE POINT ENERGY      -115.733723378929

DIPOLE MOMENT
-------------
                                X             Y             Z
Electronic contribution:      1.83969       0.41968       0.30837
Nuclear contribution   :     -2.27356      -0.42907       0.18510
                        -----------------------------------------
Total Dipole Moment    :     -0.43387      -0.00939       0.49346
                        -----------------------------------------
Magnitude (a.u.)       :      0.65714
Magnitude (Debye)      :      1.67032

Rotational constants in cm-1:     4.301951     0.832680     0.813281
Rotational constants in MHz : 128969.243874 24963.124885 24381.544322

                             ****ORCA TERMINATED NORMALLY****
TOTAL RUN TIME: 0 days 0 hours 1 minutes 6 seconds 983 msec
