                         Program Version 4.1.2  - RELEASE  -
|  1> #Run DFT-D3 single point of the dimer
|  2> ! wB97X-D3 def2-TZVP TIGHTSCF CHELPG PMODEL PAL8
|  3>
|  4> %base "18-41_DFT_AB"
|  5>
|  6> %scf
|  7> MaxIter 1000
|  8> end
|  9>
| 10> * xyz 0 1
| 11>   C                      -2.012563            4.665636             -1.975602
| 12>   O                      -2.587163            3.443356             -2.387225
| 13>   H                      -2.699769            2.832937             -1.683804
| 14>   H                      -1.104865            4.452574             -1.373677
| 15>   H                      -1.693675            5.183946             -2.882772
| 16>   H                      -2.766827            5.318061             -1.491630
| 17>   C                      -2.094311            2.283453             2.567803
| 18>   O                      -2.206315            1.869918             1.194003
| 19>   H                      -3.161988            1.826491             1.108694
| 20>   H                      -2.770650            1.809254             3.256604
| 21>   H                      -1.121342            2.272797             2.978147
| 22>   H                      -2.354916            3.318122             2.580382
| 23> *
| 24>
| 25> #Run DFT-D3 single point of the molecule with dimer basis set
| 26> $new_job
| 27> %base "18-41_DFT_A"
| 28> ! wB97X-D3 def2-TZVP TIGHTSCF CHELPG PMODEL
| 29>
| 30> %scf
| 31> MaxIter 1000
| 32> end
| 33>
| 34> * xyz 0 1
| 35>   C                      -2.012563            4.665636             -1.975602
| 36>   O                      -2.587163            3.443356             -2.387225
| 37>   H                      -2.699769            2.832937             -1.683804
| 38>   H                      -1.104865            4.452574             -1.373677
| 39>   H                      -1.693675            5.183946             -2.882772
| 40>   H                      -2.766827            5.318061             -1.491630
| 41>   C                    : -2.094311            2.283453             2.567803
| 42>   O                    : -2.206315            1.869918             1.194003
| 43>   H                    : -3.161988            1.826491             1.108694
| 44>   H                    : -2.770650            1.809254             3.256604
| 45>   H                    : -1.121342            2.272797             2.978147
| 46>   H                    : -2.354916            3.318122             2.580382
| 47> *
| 48>
| 49> #Run DFT-D3 single point of the particle with dimer basis set
| 50> $new_job
| 51> %base "18-41_DFT_B"
| 52> ! wB97X-D3 def2-TZVP TIGHTSCF CHELPG PMODEL
| 53>
| 54> %scf
| 55> MaxIter 1000
| 56> end
| 57>
| 58> * xyz 0 1
| 59>   C                    : -2.012563            4.665636             -1.975602
| 60>   O                    : -2.587163            3.443356             -2.387225
| 61>   H                    : -2.699769            2.832937             -1.683804
| 62>   H                    : -1.104865            4.452574             -1.373677
| 63>   H                    : -1.693675            5.183946             -2.882772
| 64>   H                    : -2.766827            5.318061             -1.491630
| 65>   C                      -2.094311            2.283453             2.567803
| 66>   O                      -2.206315            1.869918             1.194003
| 67>   H                      -3.161988            1.826491             1.108694
| 68>   H                      -2.770650            1.809254             3.256604
| 69>   H                      -1.121342            2.272797             2.978147
| 70>   H                      -2.354916            3.318122             2.580382
| 71> *
| 72>
| 73>                          ****END OF INPUT****
 Total Charge           Charge          ....    0
 Multiplicity           Mult            ....    1
 Number of Electrons    NEL             ....   36
Dispersion correction           -0.001169427
FINAL SINGLE POINT ENERGY      -231.466612761445
Dispersion correction           -0.000246454
FINAL SINGLE POINT ENERGY      -115.735084665836

CARTESIAN COORDINATES (ANGSTROEM)
---------------------------------
  C     -2.012563    4.665636   -1.975602
  O     -2.587163    3.443356   -2.387225
  H     -2.699769    2.832937   -1.683804
  H     -1.104865    4.452574   -1.373677
  H     -1.693675    5.183946   -2.882772
  H     -2.766827    5.318061   -1.491630
  C     -2.094311    2.283453    2.567803
  O     -2.206315    1.869918    1.194003
  H     -3.161988    1.826491    1.108694
  H     -2.770650    1.809254    3.256604
  H     -1.121342    2.272797    2.978147
  H     -2.354916    3.318122    2.580382

 Multiplicity           Mult            ....    1
 Number of Electrons    NEL             ....   18
 Basis Dimension        Dim             ....  172

ORBITAL ENERGIES
----------------

  NO   OCC          E(Eh)            E(eV)
   0   2.0000     -19.233470      -523.3693
   1   2.0000     -10.306301      -280.4487
   2   2.0000      -1.134469       -30.8705
   3   2.0000      -0.802619       -21.8404
   4   2.0000      -0.607201       -16.5228
   5   2.0000      -0.539314       -14.6755
   6   2.0000      -0.531997       -14.4764
   7   2.0000      -0.448094       -12.1933
   8   2.0000      -0.373127       -10.1533
   9   0.0000       0.091076         2.4783
  10   0.0000       0.121999         3.3198
  11   0.0000       0.150508         4.0955
  12   0.0000       0.185989         5.0610
  13   0.0000       0.192864         5.2481

MULLIKEN ATOMIC CHARGES
-----------------------
   0 C :   -0.000547
   1 O :    0.000714
   2 H :   -0.003550
   3 H :   -0.001034
   4 H :   -0.000159
   5 H :    0.000038
   6 C :   -0.189320
   7 O :   -0.462601
   8 H :    0.314661
   9 H :    0.107345
  10 H :    0.124461
  11 H :    0.109991
Sum of atomic charges:   -0.0000000

LOEWDIN ATOMIC CHARGES
----------------------
   0 C :   -0.001309
   1 O :   -0.000160
   2 H :   -0.003385
   3 H :   -0.000553
   4 H :   -0.000035
   5 H :   -0.000033
   6 C :   -0.365920
   7 O :   -0.088827
   8 H :    0.172794
   9 H :    0.093096
  10 H :    0.100315
  11 H :    0.094017

  Mayer bond orders larger than 0.1
B(  6-C ,  7-O ) :   0.9919 B(  6-C ,  9-H ) :   0.9743 B(  6-C , 10-H ) :   0.9740
B(  6-C , 11-H ) :   0.9869 B(  7-O ,  8-H ) :   0.9024

Dispersion correction           -0.000222008
FINAL SINGLE POINT ENERGY      -115.729319799582

DIPOLE MOMENT
-------------
                                X             Y             Z
Electronic contribution:      0.09897      -0.69605      -1.75480
Nuclear contribution   :     -0.63656       0.84792       2.27928
                        -----------------------------------------
Total Dipole Moment    :     -0.53759       0.15186       0.52448
                        -----------------------------------------
Magnitude (a.u.)       :      0.76626
Magnitude (Debye)      :      1.94767

Rotational constants in cm-1:     4.503283     0.817863     0.783448
Rotational constants in MHz : 135005.026414 24518.904653 23487.182076

                             ****ORCA TERMINATED NORMALLY****
TOTAL RUN TIME: 0 days 0 hours 0 minutes 57 seconds 509 msec
