                         Program Version 4.1.2  - RELEASE  -
|  1> #Run DFT-D3 single point of the dimer
|  2> ! wB97X-D3 def2-TZVP TIGHTSCF CHELPG PMODEL PAL8
|  3>
|  4> %base "21-169_DFT_AB"
|  5>
|  6> %scf
|  7> MaxIter 1000
|  8> end
|  9>
| 10> * xyz 0 1
| 11>   C                      -2.195462            -8.218944            -9.283942
| 12>   O                      -2.877718            -7.014818            -9.520438
| 13>   H                      -3.322852            -6.704210            -8.760176
| 14>   H                      -1.544764            -8.254360            -8.421028
| 15>   H                      -2.894660            -9.007557            -9.234336
| 16>   H                      -1.604312            -8.382997            -10.215186
| 17>   C                      -4.191851            -5.639233            -6.092348
| 18>   O                      -4.740001            -5.938197            -7.361074
| 19>   H                      -5.719560            -5.957338            -7.416808
| 20>   H                      -3.978246            -4.573620            -5.862607
| 21>   H                      -4.706726            -6.078706            -5.226175
| 22>   H                      -3.183972            -6.062330            -6.000709
| 23> *
| 24>
| 25> #Run DFT-D3 single point of the molecule with dimer basis set
| 26> $new_job
| 27> %base "21-169_DFT_A"
| 28> ! wB97X-D3 def2-TZVP TIGHTSCF CHELPG PMODEL
| 29>
| 30> %scf
| 31> MaxIter 1000
| 32> end
| 33>
| 34> * xyz 0 1
| 35>   C                      -2.195462            -8.218944            -9.283942
| 36>   O                      -2.877718            -7.014818            -9.520438
| 37>   H                      -3.322852            -6.704210            -8.760176
| 38>   H                      -1.544764            -8.254360            -8.421028
| 39>   H                      -2.894660            -9.007557            -9.234336
| 40>   H                      -1.604312            -8.382997            -10.215186
| 41>   C                    : -4.191851            -5.639233            -6.092348
| 42>   O                    : -4.740001            -5.938197            -7.361074
| 43>   H                    : -5.719560            -5.957338            -7.416808
| 44>   H                    : -3.978246            -4.573620            -5.862607
| 45>   H                    : -4.706726            -6.078706            -5.226175
| 46>   H                    : -3.183972            -6.062330            -6.000709
| 47> *
| 48>
| 49> #Run DFT-D3 single point of the particle with dimer basis set
| 50> $new_job
| 51> %base "21-169_DFT_B"
| 52> ! wB97X-D3 def2-TZVP TIGHTSCF CHELPG PMODEL
| 53>
| 54> %scf
| 55> MaxIter 1000
| 56> end
| 57>
| 58> * xyz 0 1
| 59>   C                    : -2.195462            -8.218944            -9.283942
| 60>   O                    : -2.877718            -7.014818            -9.520438
| 61>   H                    : -3.322852            -6.704210            -8.760176
| 62>   H                    : -1.544764            -8.254360            -8.421028
| 63>   H                    : -2.894660            -9.007557            -9.234336
| 64>   H                    : -1.604312            -8.382997            -10.215186
| 65>   C                      -4.191851            -5.639233            -6.092348
| 66>   O                      -4.740001            -5.938197            -7.361074
| 67>   H                      -5.719560            -5.957338            -7.416808
| 68>   H                      -3.978246            -4.573620            -5.862607
| 69>   H                      -4.706726            -6.078706            -5.226175
| 70>   H                      -3.183972            -6.062330            -6.000709
| 71> *
| 72>
| 73>                          ****END OF INPUT****
 Total Charge           Charge          ....    0
 Multiplicity           Mult            ....    1
 Number of Electrons    NEL             ....   36
Dispersion correction           -0.001618506
FINAL SINGLE POINT ENERGY      -231.472217102105
Dispersion correction           -0.000239866
FINAL SINGLE POINT ENERGY      -115.734037627632

CARTESIAN COORDINATES (ANGSTROEM)
---------------------------------
  C     -2.195462   -8.218944   -9.283942
  O     -2.877718   -7.014818   -9.520438
  H     -3.322852   -6.704210   -8.760176
  H     -1.544764   -8.254360   -8.421028
  H     -2.894660   -9.007557   -9.234336
  H     -1.604312   -8.382997  -10.215186
  C     -4.191851   -5.639233   -6.092348
  O     -4.740001   -5.938197   -7.361074
  H     -5.719560   -5.957338   -7.416808
  H     -3.978246   -4.573620   -5.862607
  H     -4.706726   -6.078706   -5.226175
  H     -3.183972   -6.062330   -6.000709

 Multiplicity           Mult            ....    1
 Number of Electrons    NEL             ....   18
 Basis Dimension        Dim             ....  172

ORBITAL ENERGIES
----------------

  NO   OCC          E(Eh)            E(eV)
   0   2.0000     -19.235027      -523.4117
   1   2.0000     -10.316138      -280.7164
   2   2.0000      -1.129259       -30.7287
   3   2.0000      -0.798854       -21.7379
   4   2.0000      -0.614472       -16.7206
   5   2.0000      -0.535963       -14.5843
   6   2.0000      -0.523852       -14.2547
   7   2.0000      -0.423045       -11.5116
   8   2.0000      -0.375099       -10.2070
   9   0.0000       0.097563         2.6548
  10   0.0000       0.120603         3.2818
  11   0.0000       0.144458         3.9309
  12   0.0000       0.185649         5.0518
  13   0.0000       0.204053         5.5526

MULLIKEN ATOMIC CHARGES
-----------------------
   0 C :   -0.001023
   1 O :   -0.000689
   2 H :   -0.004076
   3 H :   -0.000092
   4 H :   -0.000168
   5 H :   -0.000097
   6 C :   -0.155837
   7 O :   -0.484188
   8 H :    0.321630
   9 H :    0.100268
  10 H :    0.104846
  11 H :    0.119426
Sum of atomic charges:    0.0000000

LOEWDIN ATOMIC CHARGES
----------------------
   0 C :   -0.001032
   1 O :   -0.003305
   2 H :   -0.026653
   3 H :   -0.000080
   4 H :   -0.000112
   5 H :   -0.000024
   6 C :   -0.395253
   7 O :   -0.058079
   8 H :    0.180690
   9 H :    0.097408
  10 H :    0.097177
  11 H :    0.109261

  Mayer bond orders larger than 0.1
B(  6-C ,  7-O ) :   1.0081 B(  6-C ,  9-H ) :   0.9704 B(  6-C , 10-H ) :   0.9720
B(  6-C , 11-H ) :   0.9766 B(  7-O ,  8-H ) :   0.8860

Dispersion correction           -0.000294403
FINAL SINGLE POINT ENERGY      -115.731282198196

DIPOLE MOMENT
-------------
                                X             Y             Z
Electronic contribution:     -0.75893      -0.37949      -1.76453
Nuclear contribution   :      0.35003       0.46367       2.25570
                        -----------------------------------------
Total Dipole Moment    :     -0.40890       0.08417       0.49117
                        -----------------------------------------
Magnitude (a.u.)       :      0.64462
Magnitude (Debye)      :      1.63849

Rotational constants in cm-1:     4.537886     0.800398     0.777457
Rotational constants in MHz : 136042.414160 23995.326468 23307.561494

                             ****ORCA TERMINATED NORMALLY****
TOTAL RUN TIME: 0 days 0 hours 1 minutes 7 seconds 336 msec
