                         Program Version 4.1.2  - RELEASE  -
|  1> #Run DFT-D3 single point of the dimer
|  2> ! wB97X-D3 def2-TZVP TIGHTSCF CHELPG PMODEL PAL8
|  3>
|  4> %base "2-78_DFT_AB"
|  5>
|  6> %scf
|  7> MaxIter 1000
|  8> end
|  9>
| 10> * xyz 0 1
| 11>   C                      -6.296488            0.198913             2.792889
| 12>   O                      -6.461516            -0.521665            1.555688
| 13>   H                      -5.961074            -1.353102            1.626890
| 14>   H                      -6.761771            -0.381322            3.663012
| 15>   H                      -5.261582            0.262228             3.149411
| 16>   H                      -6.779186            1.233509             2.736756
| 17>   C                      -5.568254            -3.555992            -1.520205
| 18>   O                      -6.828211            -4.070535            -1.896259
| 19>   H                      -6.816307            -4.100120            -2.846826
| 20>   H                      -5.608315            -2.703405            -0.819243
| 21>   H                      -5.009974            -4.353165            -0.938864
| 22>   H                      -4.857457            -3.366552            -2.418763
| 23> *
| 24>
| 25> #Run DFT-D3 single point of the molecule with dimer basis set
| 26> $new_job
| 27> %base "2-78_DFT_A"
| 28> ! wB97X-D3 def2-TZVP TIGHTSCF CHELPG PMODEL
| 29>
| 30> %scf
| 31> MaxIter 1000
| 32> end
| 33>
| 34> * xyz 0 1
| 35>   C                      -6.296488            0.198913             2.792889
| 36>   O                      -6.461516            -0.521665            1.555688
| 37>   H                      -5.961074            -1.353102            1.626890
| 38>   H                      -6.761771            -0.381322            3.663012
| 39>   H                      -5.261582            0.262228             3.149411
| 40>   H                      -6.779186            1.233509             2.736756
| 41>   C                    : -5.568254            -3.555992            -1.520205
| 42>   O                    : -6.828211            -4.070535            -1.896259
| 43>   H                    : -6.816307            -4.100120            -2.846826
| 44>   H                    : -5.608315            -2.703405            -0.819243
| 45>   H                    : -5.009974            -4.353165            -0.938864
| 46>   H                    : -4.857457            -3.366552            -2.418763
| 47> *
| 48>
| 49> #Run DFT-D3 single point of the particle with dimer basis set
| 50> $new_job
| 51> %base "2-78_DFT_B"
| 52> ! wB97X-D3 def2-TZVP TIGHTSCF CHELPG PMODEL
| 53>
| 54> %scf
| 55> MaxIter 1000
| 56> end
| 57>
| 58> * xyz 0 1
| 59>   C                    : -6.296488            0.198913             2.792889
| 60>   O                    : -6.461516            -0.521665            1.555688
| 61>   H                    : -5.961074            -1.353102            1.626890
| 62>   H                    : -6.761771            -0.381322            3.663012
| 63>   H                    : -5.261582            0.262228             3.149411
| 64>   H                    : -6.779186            1.233509             2.736756
| 65>   C                      -5.568254            -3.555992            -1.520205
| 66>   O                      -6.828211            -4.070535            -1.896259
| 67>   H                      -6.816307            -4.100120            -2.846826
| 68>   H                      -5.608315            -2.703405            -0.819243
| 69>   H                      -5.009974            -4.353165            -0.938864
| 70>   H                      -4.857457            -3.366552            -2.418763
| 71> *
| 72>
| 73>                          ****END OF INPUT****
 Total Charge           Charge          ....    0
 Multiplicity           Mult            ....    1
 Number of Electrons    NEL             ....   36
Dispersion correction           -0.000960813
FINAL SINGLE POINT ENERGY      -231.460598897840
Dispersion correction           -0.000270371
FINAL SINGLE POINT ENERGY      -115.730912100042

CARTESIAN COORDINATES (ANGSTROEM)
---------------------------------
  C     -6.296488    0.198913    2.792889
  O     -6.461516   -0.521665    1.555688
  H     -5.961074   -1.353102    1.626890
  H     -6.761771   -0.381322    3.663012
  H     -5.261582    0.262228    3.149411
  H     -6.779186    1.233509    2.736756
  C     -5.568254   -3.555992   -1.520205
  O     -6.828211   -4.070535   -1.896259
  H     -6.816307   -4.100120   -2.846826
  H     -5.608315   -2.703405   -0.819243
  H     -5.009974   -4.353165   -0.938864
  H     -4.857457   -3.366552   -2.418763

 Multiplicity           Mult            ....    1
 Number of Electrons    NEL             ....   18
 Basis Dimension        Dim             ....  172

ORBITAL ENERGIES
----------------

  NO   OCC          E(Eh)            E(eV)
   0   2.0000     -19.233707      -523.3758
   1   2.0000     -10.325657      -280.9754
   2   2.0000      -1.142504       -31.0891
   3   2.0000      -0.787952       -21.4413
   4   2.0000      -0.611467       -16.6389
   5   2.0000      -0.537040       -14.6136
   6   2.0000      -0.524154       -14.2630
   7   2.0000      -0.435926       -11.8622
   8   2.0000      -0.371406       -10.1065
   9   0.0000       0.086928         2.3654
  10   0.0000       0.111615         3.0372
  11   0.0000       0.142337         3.8732
  12   0.0000       0.171462         4.6657
  13   0.0000       0.189665         5.1611

MULLIKEN ATOMIC CHARGES
-----------------------
   0 C :   -0.000074
   1 O :   -0.000021
   2 H :    0.000411
   3 H :    0.000004
   4 H :    0.000008
   5 H :   -0.000003
   6 C :   -0.192723
   7 O :   -0.452420
   8 H :    0.316870
   9 H :    0.117942
  10 H :    0.105181
  11 H :    0.104826
Sum of atomic charges:    0.0000000

LOEWDIN ATOMIC CHARGES
----------------------
   0 C :   -0.000014
   1 O :   -0.000351
   2 H :   -0.001415
   3 H :   -0.000001
   4 H :   -0.000000
   5 H :   -0.000000
   6 C :   -0.406955
   7 O :   -0.069507
   8 H :    0.166400
   9 H :    0.100905
  10 H :    0.103613
  11 H :    0.107325

  Mayer bond orders larger than 0.1
B(  6-C ,  7-O ) :   1.0181 B(  6-C ,  9-H ) :   0.9669 B(  6-C , 10-H ) :   0.9770
B(  6-C , 11-H ) :   0.9805 B(  7-O ,  8-H ) :   0.9022

Dispersion correction           -0.000267343
FINAL SINGLE POINT ENERGY      -115.729617200643

DIPOLE MOMENT
-------------
                                X             Y             Z
Electronic contribution:     -1.85527      -0.55062      -0.40124
Nuclear contribution   :      2.33594       0.71503      -0.07098
                        -----------------------------------------
Total Dipole Moment    :      0.48068       0.16441      -0.47221
                        -----------------------------------------
Magnitude (a.u.)       :      0.69359
Magnitude (Debye)      :      1.76296

Rotational constants in cm-1:     4.119196     0.826951     0.788397
Rotational constants in MHz : 123490.401099 24791.374362 23635.547383

                             ****ORCA TERMINATED NORMALLY****
TOTAL RUN TIME: 0 days 0 hours 6 minutes 1 seconds 325 msec
