                         Program Version 4.1.2  - RELEASE  -
|  1> #Run DFT-D3 single point of the dimer
|  2> ! wB97X-D3 def2-TZVP TIGHTSCF CHELPG PMODEL PAL8
|  3>
|  4> %base "5-15_DFT_AB"
|  5>
|  6> %scf
|  7> MaxIter 1000
|  8> end
|  9>
| 10> * xyz 0 1
| 11>   C                      4.682052             -4.285258            7.565120
| 12>   O                      4.866444             -3.775011            6.253769
| 13>   H                      4.430609             -2.921144            6.243393
| 14>   H                      4.396078             -3.482571            8.277853
| 15>   H                      3.896837             -5.017560            7.602140
| 16>   H                      5.548066             -4.676643            7.981622
| 17>   C                      8.209675             -5.522945            9.196623
| 18>   O                      7.015709             -5.491907            9.982829
| 19>   H                      6.939594             -6.319247            10.420045
| 20>   H                      8.182729             -6.271335            8.382496
| 21>   H                      8.183501             -4.633364            8.568439
| 22>   H                      9.084552             -5.650061            9.844359
| 23> *
| 24>
| 25> #Run DFT-D3 single point of the molecule with dimer basis set
| 26> $new_job
| 27> %base "5-15_DFT_A"
| 28> ! wB97X-D3 def2-TZVP TIGHTSCF CHELPG PMODEL
| 29>
| 30> %scf
| 31> MaxIter 1000
| 32> end
| 33>
| 34> * xyz 0 1
| 35>   C                      4.682052             -4.285258            7.565120
| 36>   O                      4.866444             -3.775011            6.253769
| 37>   H                      4.430609             -2.921144            6.243393
| 38>   H                      4.396078             -3.482571            8.277853
| 39>   H                      3.896837             -5.017560            7.602140
| 40>   H                      5.548066             -4.676643            7.981622
| 41>   C                    : 8.209675             -5.522945            9.196623
| 42>   O                    : 7.015709             -5.491907            9.982829
| 43>   H                    : 6.939594             -6.319247            10.420045
| 44>   H                    : 8.182729             -6.271335            8.382496
| 45>   H                    : 8.183501             -4.633364            8.568439
| 46>   H                    : 9.084552             -5.650061            9.844359
| 47> *
| 48>
| 49> #Run DFT-D3 single point of the particle with dimer basis set
| 50> $new_job
| 51> %base "5-15_DFT_B"
| 52> ! wB97X-D3 def2-TZVP TIGHTSCF CHELPG PMODEL
| 53>
| 54> %scf
| 55> MaxIter 1000
| 56> end
| 57>
| 58> * xyz 0 1
| 59>   C                    : 4.682052             -4.285258            7.565120
| 60>   O                    : 4.866444             -3.775011            6.253769
| 61>   H                    : 4.430609             -2.921144            6.243393
| 62>   H                    : 4.396078             -3.482571            8.277853
| 63>   H                    : 3.896837             -5.017560            7.602140
| 64>   H                    : 5.548066             -4.676643            7.981622
| 65>   C                      8.209675             -5.522945            9.196623
| 66>   O                      7.015709             -5.491907            9.982829
| 67>   H                      6.939594             -6.319247            10.420045
| 68>   H                      8.182729             -6.271335            8.382496
| 69>   H                      8.183501             -4.633364            8.568439
| 70>   H                      9.084552             -5.650061            9.844359
| 71> *
| 72>
| 73>                          ****END OF INPUT****
 Total Charge           Charge          ....    0
 Multiplicity           Mult            ....    1
 Number of Electrons    NEL             ....   36
Dispersion correction           -0.001578427
FINAL SINGLE POINT ENERGY      -231.467864035514
Dispersion correction           -0.000239376
FINAL SINGLE POINT ENERGY      -115.732496966426

CARTESIAN COORDINATES (ANGSTROEM)
---------------------------------
  C      4.682052   -4.285258    7.565120
  O      4.866444   -3.775011    6.253769
  H      4.430609   -2.921144    6.243393
  H      4.396078   -3.482571    8.277853
  H      3.896837   -5.017560    7.602140
  H      5.548066   -4.676643    7.981622
  C      8.209675   -5.522945    9.196623
  O      7.015709   -5.491907    9.982829
  H      6.939594   -6.319247   10.420045
  H      8.182729   -6.271335    8.382496
  H      8.183501   -4.633364    8.568439
  H      9.084552   -5.650061    9.844359

 Multiplicity           Mult            ....    1
 Number of Electrons    NEL             ....   18
 Basis Dimension        Dim             ....  172

ORBITAL ENERGIES
----------------

  NO   OCC          E(Eh)            E(eV)
   0   2.0000     -19.228191      -523.2257
   1   2.0000     -10.315869      -280.7091
   2   2.0000      -1.135852       -30.9081
   3   2.0000      -0.798082       -21.7169
   4   2.0000      -0.608246       -16.5512
   5   2.0000      -0.554042       -15.0763
   6   2.0000      -0.514518       -14.0007
   7   2.0000      -0.433248       -11.7893
   8   2.0000      -0.376247       -10.2382
   9   0.0000       0.094790         2.5794
  10   0.0000       0.123771         3.3680
  11   0.0000       0.152043         4.1373
  12   0.0000       0.183570         4.9952
  13   0.0000       0.191205         5.2030

MULLIKEN ATOMIC CHARGES
-----------------------
   0 C :   -0.007770
   1 O :    0.000050
   2 H :   -0.000007
   3 H :   -0.000314
   4 H :   -0.000077
   5 H :    0.007935
   6 C :   -0.176960
   7 O :   -0.474290
   8 H :    0.307834
   9 H :    0.102018
  10 H :    0.124629
  11 H :    0.116952
Sum of atomic charges:    0.0000000

LOEWDIN ATOMIC CHARGES
----------------------
   0 C :   -0.005420
   1 O :   -0.000032
   2 H :   -0.000010
   3 H :   -0.000265
   4 H :   -0.000139
   5 H :   -0.007917
   6 C :   -0.376418
   7 O :   -0.069036
   8 H :    0.151643
   9 H :    0.097221
  10 H :    0.111467
  11 H :    0.098906

  Mayer bond orders larger than 0.1
B(  6-C ,  7-O ) :   0.9923 B(  6-C ,  9-H ) :   0.9731 B(  6-C , 10-H ) :   0.9780
B(  6-C , 11-H ) :   0.9708 B(  7-O ,  8-H ) :   0.9058

Dispersion correction           -0.000245392
FINAL SINGLE POINT ENERGY      -115.733022457777

DIPOLE MOMENT
-------------
                                X             Y             Z
Electronic contribution:     -1.43145       0.16383       1.05798
Nuclear contribution   :      1.86091      -0.69909      -1.11585
                        -----------------------------------------
Total Dipole Moment    :      0.42946      -0.53526      -0.05787
                        -----------------------------------------
Magnitude (a.u.)       :      0.68869
Magnitude (Debye)      :      1.75050

Rotational constants in cm-1:     4.279222     0.818396     0.792297
Rotational constants in MHz : 128287.855281 24534.909415 23752.467341

                             ****ORCA TERMINATED NORMALLY****
TOTAL RUN TIME: 0 days 0 hours 1 minutes 1 seconds 541 msec
