                         Program Version 4.1.2  - RELEASE  -
|  1> #Run DFT-D3 single point of the dimer
|  2> ! wB97X-D3 def2-TZVP TIGHTSCF CHELPG PMODEL PAL8
|  3>
|  4> %base "21-62_DFT_AB"
|  5>
|  6> %scf
|  7> MaxIter 1000
|  8> end
|  9>
| 10> * xyz 0 1
| 11>   C                      -11.372586           8.540703             -4.414854
| 12>   O                      -10.682548           7.464592             -3.735657
| 13>   H                      -9.880261            7.202070             -4.211377
| 14>   H                      -12.306293           8.795395             -3.765906
| 15>   H                      -10.774642           9.463074             -4.547285
| 16>   H                      -11.771777           8.144614             -5.371547
| 17>   C                      -9.160519            8.680467             -9.379281
| 18>   O                      -9.513265            8.611742             -7.977910
| 19>   H                      -8.903762            8.138614             -7.374890
| 20>   H                      -9.073666            9.693718             -9.714634
| 21>   H                      -8.235219            8.176330             -9.639684
| 22>   H                      -10.008208           8.291303             -9.932701
| 23> *
| 24>
| 25> #Run DFT-D3 single point of the molecule with dimer basis set
| 26> $new_job
| 27> %base "21-62_DFT_A"
| 28> ! wB97X-D3 def2-TZVP TIGHTSCF CHELPG PMODEL
| 29>
| 30> %scf
| 31> MaxIter 1000
| 32> end
| 33>
| 34> * xyz 0 1
| 35>   C                      -11.372586           8.540703             -4.414854
| 36>   O                      -10.682548           7.464592             -3.735657
| 37>   H                      -9.880261            7.202070             -4.211377
| 38>   H                      -12.306293           8.795395             -3.765906
| 39>   H                      -10.774642           9.463074             -4.547285
| 40>   H                      -11.771777           8.144614             -5.371547
| 41>   C                    : -9.160519            8.680467             -9.379281
| 42>   O                    : -9.513265            8.611742             -7.977910
| 43>   H                    : -8.903762            8.138614             -7.374890
| 44>   H                    : -9.073666            9.693718             -9.714634
| 45>   H                    : -8.235219            8.176330             -9.639684
| 46>   H                    : -10.008208           8.291303             -9.932701
| 47> *
| 48>
| 49> #Run DFT-D3 single point of the particle with dimer basis set
| 50> $new_job
| 51> %base "21-62_DFT_B"
| 52> ! wB97X-D3 def2-TZVP TIGHTSCF CHELPG PMODEL
| 53>
| 54> %scf
| 55> MaxIter 1000
| 56> end
| 57>
| 58> * xyz 0 1
| 59>   C                    : -11.372586           8.540703             -4.414854
| 60>   O                    : -10.682548           7.464592             -3.735657
| 61>   H                    : -9.880261            7.202070             -4.211377
| 62>   H                    : -12.306293           8.795395             -3.765906
| 63>   H                    : -10.774642           9.463074             -4.547285
| 64>   H                    : -11.771777           8.144614             -5.371547
| 65>   C                      -9.160519            8.680467             -9.379281
| 66>   O                      -9.513265            8.611742             -7.977910
| 67>   H                      -8.903762            8.138614             -7.374890
| 68>   H                      -9.073666            9.693718             -9.714634
| 69>   H                      -8.235219            8.176330             -9.639684
| 70>   H                      -10.008208           8.291303             -9.932701
| 71> *
| 72>
| 73>                          ****END OF INPUT****
 Total Charge           Charge          ....    0
 Multiplicity           Mult            ....    1
 Number of Electrons    NEL             ....   36
Dispersion correction           -0.001154807
FINAL SINGLE POINT ENERGY      -231.463611202729
Dispersion correction           -0.000276453
FINAL SINGLE POINT ENERGY      -115.732098143641

CARTESIAN COORDINATES (ANGSTROEM)
---------------------------------
  C    -11.372586    8.540703   -4.414854
  O    -10.682548    7.464592   -3.735657
  H     -9.880261    7.202070   -4.211377
  H    -12.306293    8.795395   -3.765906
  H    -10.774642    9.463074   -4.547285
  H    -11.771777    8.144614   -5.371547
  C     -9.160519    8.680467   -9.379281
  O     -9.513265    8.611742   -7.977910
  H     -8.903762    8.138614   -7.374890
  H     -9.073666    9.693718   -9.714634
  H     -8.235219    8.176330   -9.639684
  H    -10.008208    8.291303   -9.932701

 Multiplicity           Mult            ....    1
 Number of Electrons    NEL             ....   18
 Basis Dimension        Dim             ....  172

ORBITAL ENERGIES
----------------

  NO   OCC          E(Eh)            E(eV)
   0   2.0000     -19.226432      -523.1778
   1   2.0000     -10.312376      -280.6140
   2   2.0000      -1.115396       -30.3515
   3   2.0000      -0.802611       -21.8402
   4   2.0000      -0.606134       -16.4938
   5   2.0000      -0.531603       -14.4657
   6   2.0000      -0.530615       -14.4388
   7   2.0000      -0.426913       -11.6169
   8   2.0000      -0.369878       -10.0649
   9   0.0000       0.085604         2.3294
  10   0.0000       0.123647         3.3646
  11   0.0000       0.149974         4.0810
  12   0.0000       0.170097         4.6286
  13   0.0000       0.196278         5.3410

MULLIKEN ATOMIC CHARGES
-----------------------
   0 C :    0.000562
   1 O :    0.000019
   2 H :   -0.000168
   3 H :   -0.000129
   4 H :   -0.000790
   5 H :   -0.002476
   6 C :   -0.153204
   7 O :   -0.507292
   8 H :    0.323358
   9 H :    0.113138
  10 H :    0.109241
  11 H :    0.117741
Sum of atomic charges:   -0.0000000

LOEWDIN ATOMIC CHARGES
----------------------
   0 C :   -0.001548
   1 O :   -0.000017
   2 H :   -0.000129
   3 H :   -0.000015
   4 H :   -0.000451
   5 H :   -0.001332
   6 C :   -0.352887
   7 O :   -0.114508
   8 H :    0.175185
   9 H :    0.096337
  10 H :    0.096449
  11 H :    0.102916

  Mayer bond orders larger than 0.1
B(  6-C ,  7-O ) :   0.9946 B(  6-C ,  9-H ) :   0.9743 B(  6-C , 10-H ) :   0.9760
B(  6-C , 11-H ) :   0.9800 B(  7-O ,  8-H ) :   0.8878

Dispersion correction           -0.000280262
FINAL SINGLE POINT ENERGY      -115.731073070975

DIPOLE MOMENT
-------------
                                X             Y             Z
Electronic contribution:     -0.42939      -0.06161       1.68450
Nuclear contribution   :      1.00361      -0.21755      -1.91450
                        -----------------------------------------
Total Dipole Moment    :      0.57422      -0.27916      -0.23000
                        -----------------------------------------
Magnitude (a.u.)       :      0.67864
Magnitude (Debye)      :      1.72497

Rotational constants in cm-1:     4.505502     0.791859     0.761306
Rotational constants in MHz : 135071.563069 23739.330373 22823.366605

                             ****ORCA TERMINATED NORMALLY****
TOTAL RUN TIME: 0 days 0 hours 1 minutes 3 seconds 379 msec
