                         Program Version 4.1.2  - RELEASE  -
|  1> #Run DFT-D3 single point of the dimer
|  2> ! wB97X-D3 def2-TZVP TIGHTSCF CHELPG PMODEL PAL8
|  3>
|  4> %base "17-143_DFT_AB"
|  5>
|  6> %scf
|  7> MaxIter 1000
|  8> end
|  9>
| 10> * xyz 0 1
| 11>   C                      2.761676             -6.208087            3.528277
| 12>   O                      3.031626             -7.417651            2.918432
| 13>   H                      2.459564             -7.478778            2.192738
| 14>   H                      3.046349             -6.231249            4.572474
| 15>   H                      3.447008             -5.440362            3.205289
| 16>   H                      1.725867             -5.883107            3.328720
| 17>   C                      6.535154             -4.590430            0.816573
| 18>   O                      6.702349             -5.640449            1.802626
| 19>   H                      6.695446             -5.084261            2.596765
| 20>   H                      7.474286             -4.244815            0.417985
| 21>   H                      5.929053             -4.944006            -0.004151
| 22>   H                      6.027698             -3.789516            1.355659
| 23> *
| 24>
| 25> #Run DFT-D3 single point of the molecule with dimer basis set
| 26> $new_job
| 27> %base "17-143_DFT_A"
| 28> ! wB97X-D3 def2-TZVP TIGHTSCF CHELPG PMODEL
| 29>
| 30> %scf
| 31> MaxIter 1000
| 32> end
| 33>
| 34> * xyz 0 1
| 35>   C                      2.761676             -6.208087            3.528277
| 36>   O                      3.031626             -7.417651            2.918432
| 37>   H                      2.459564             -7.478778            2.192738
| 38>   H                      3.046349             -6.231249            4.572474
| 39>   H                      3.447008             -5.440362            3.205289
| 40>   H                      1.725867             -5.883107            3.328720
| 41>   C                    : 6.535154             -4.590430            0.816573
| 42>   O                    : 6.702349             -5.640449            1.802626
| 43>   H                    : 6.695446             -5.084261            2.596765
| 44>   H                    : 7.474286             -4.244815            0.417985
| 45>   H                    : 5.929053             -4.944006            -0.004151
| 46>   H                    : 6.027698             -3.789516            1.355659
| 47> *
| 48>
| 49> #Run DFT-D3 single point of the particle with dimer basis set
| 50> $new_job
| 51> %base "17-143_DFT_B"
| 52> ! wB97X-D3 def2-TZVP TIGHTSCF CHELPG PMODEL
| 53>
| 54> %scf
| 55> MaxIter 1000
| 56> end
| 57>
| 58> * xyz 0 1
| 59>   C                    : 2.761676             -6.208087            3.528277
| 60>   O                    : 3.031626             -7.417651            2.918432
| 61>   H                    : 2.459564             -7.478778            2.192738
| 62>   H                    : 3.046349             -6.231249            4.572474
| 63>   H                    : 3.447008             -5.440362            3.205289
| 64>   H                    : 1.725867             -5.883107            3.328720
| 65>   C                      6.535154             -4.590430            0.816573
| 66>   O                      6.702349             -5.640449            1.802626
| 67>   H                      6.695446             -5.084261            2.596765
| 68>   H                      7.474286             -4.244815            0.417985
| 69>   H                      5.929053             -4.944006            -0.004151
| 70>   H                      6.027698             -3.789516            1.355659
| 71> *
| 72>
| 73>                          ****END OF INPUT****
 Total Charge           Charge          ....    0
 Multiplicity           Mult            ....    1
 Number of Electrons    NEL             ....   36
Dispersion correction           -0.001061472
FINAL SINGLE POINT ENERGY      -231.461343570070
Dispersion correction           -0.000222216
FINAL SINGLE POINT ENERGY      -115.730697828327

CARTESIAN COORDINATES (ANGSTROEM)
---------------------------------
  C      2.761676   -6.208087    3.528277
  O      3.031626   -7.417651    2.918432
  H      2.459564   -7.478778    2.192738
  H      3.046349   -6.231249    4.572474
  H      3.447008   -5.440362    3.205289
  H      1.725867   -5.883107    3.328720
  C      6.535154   -4.590430    0.816573
  O      6.702349   -5.640449    1.802626
  H      6.695446   -5.084261    2.596765
  H      7.474286   -4.244815    0.417985
  H      5.929053   -4.944006   -0.004151
  H      6.027698   -3.789516    1.355659

 Multiplicity           Mult            ....    1
 Number of Electrons    NEL             ....   18
 Basis Dimension        Dim             ....  172

ORBITAL ENERGIES
----------------

  NO   OCC          E(Eh)            E(eV)
   0   2.0000     -19.231064      -523.3038
   1   2.0000     -10.313202      -280.6365
   2   2.0000      -1.129952       -30.7476
   3   2.0000      -0.793893       -21.6029
   4   2.0000      -0.603474       -16.4214
   5   2.0000      -0.543747       -14.7961
   6   2.0000      -0.525341       -14.2953
   7   2.0000      -0.442849       -12.0505
   8   2.0000      -0.375440       -10.2162
   9   0.0000       0.085592         2.3291
  10   0.0000       0.115805         3.1512
  11   0.0000       0.155742         4.2379
  12   0.0000       0.168291         4.5794
  13   0.0000       0.196269         5.3408

MULLIKEN ATOMIC CHARGES
-----------------------
   0 C :    0.000762
   1 O :    0.000038
   2 H :   -0.000019
   3 H :    0.000090
   4 H :   -0.003802
   5 H :   -0.000138
   6 C :   -0.172672
   7 O :   -0.462575
   8 H :    0.311811
   9 H :    0.106387
  10 H :    0.120275
  11 H :    0.099842
Sum of atomic charges:   -0.0000000

LOEWDIN ATOMIC CHARGES
----------------------
   0 C :   -0.001133
   1 O :   -0.000134
   2 H :   -0.000031
   3 H :   -0.000016
   4 H :   -0.001578
   5 H :   -0.000022
   6 C :   -0.357099
   7 O :   -0.107633
   8 H :    0.175190
   9 H :    0.092405
  10 H :    0.102261
  11 H :    0.097789

  Mayer bond orders larger than 0.1
B(  6-C ,  7-O ) :   1.0004 B(  6-C ,  9-H ) :   0.9703 B(  6-C , 10-H ) :   0.9767
B(  6-C , 11-H ) :   0.9960 B(  7-O ,  8-H ) :   0.9070

Dispersion correction           -0.000222845
FINAL SINGLE POINT ENERGY      -115.731266643385

DIPOLE MOMENT
-------------
                                X             Y             Z
Electronic contribution:      0.25033      -1.43842       1.01516
Nuclear contribution   :     -0.32363       2.20490      -0.93875
                        -----------------------------------------
Total Dipole Moment    :     -0.07330       0.76648       0.07641
                        -----------------------------------------
Magnitude (a.u.)       :      0.77376
Magnitude (Debye)      :      1.96675

Rotational constants in cm-1:     4.204571     0.819170     0.784375
Rotational constants in MHz : 126049.879217 24558.099646 23514.968100

                             ****ORCA TERMINATED NORMALLY****
TOTAL RUN TIME: 0 days 0 hours 1 minutes 12 seconds 333 msec
