                         Program Version 4.1.2  - RELEASE  -
|  1> #Run DFT-D3 single point of the dimer
|  2> ! wB97X-D3 def2-TZVP TIGHTSCF CHELPG PMODEL PAL8
|  3>
|  4> %base "19-44_DFT_AB"
|  5>
|  6> %scf
|  7> MaxIter 1000
|  8> end
|  9>
| 10> * xyz 0 1
| 11>   C                      -5.106868            5.364977             4.076705
| 12>   O                      -4.860362            6.614453             3.509791
| 13>   H                      -4.817998            6.497377             2.536860
| 14>   H                      -6.164157            5.347365             4.411321
| 15>   H                      -4.952286            4.468046             3.431176
| 16>   H                      -4.499261            5.272901             4.938925
| 17>   C                      -2.423555            9.589600             4.384260
| 18>   O                      -2.114661            10.943369            4.153612
| 19>   H                      -2.578880            11.475667            4.847472
| 20>   H                      -3.340220            9.227224             3.991830
| 21>   H                      -1.603882            8.984377             4.046865
| 22>   H                      -2.506658            9.472759             5.502255
| 23> *
| 24>
| 25> #Run DFT-D3 single point of the molecule with dimer basis set
| 26> $new_job
| 27> %base "19-44_DFT_A"
| 28> ! wB97X-D3 def2-TZVP TIGHTSCF CHELPG PMODEL
| 29>
| 30> %scf
| 31> MaxIter 1000
| 32> end
| 33>
| 34> * xyz 0 1
| 35>   C                      -5.106868            5.364977             4.076705
| 36>   O                      -4.860362            6.614453             3.509791
| 37>   H                      -4.817998            6.497377             2.536860
| 38>   H                      -6.164157            5.347365             4.411321
| 39>   H                      -4.952286            4.468046             3.431176
| 40>   H                      -4.499261            5.272901             4.938925
| 41>   C                    : -2.423555            9.589600             4.384260
| 42>   O                    : -2.114661            10.943369            4.153612
| 43>   H                    : -2.578880            11.475667            4.847472
| 44>   H                    : -3.340220            9.227224             3.991830
| 45>   H                    : -1.603882            8.984377             4.046865
| 46>   H                    : -2.506658            9.472759             5.502255
| 47> *
| 48>
| 49> #Run DFT-D3 single point of the particle with dimer basis set
| 50> $new_job
| 51> %base "19-44_DFT_B"
| 52> ! wB97X-D3 def2-TZVP TIGHTSCF CHELPG PMODEL
| 53>
| 54> %scf
| 55> MaxIter 1000
| 56> end
| 57>
| 58> * xyz 0 1
| 59>   C                    : -5.106868            5.364977             4.076705
| 60>   O                    : -4.860362            6.614453             3.509791
| 61>   H                    : -4.817998            6.497377             2.536860
| 62>   H                    : -6.164157            5.347365             4.411321
| 63>   H                    : -4.952286            4.468046             3.431176
| 64>   H                    : -4.499261            5.272901             4.938925
| 65>   C                      -2.423555            9.589600             4.384260
| 66>   O                      -2.114661            10.943369            4.153612
| 67>   H                      -2.578880            11.475667            4.847472
| 68>   H                      -3.340220            9.227224             3.991830
| 69>   H                      -1.603882            8.984377             4.046865
| 70>   H                      -2.506658            9.472759             5.502255
| 71> *
| 72>
| 73>                          ****END OF INPUT****
 Total Charge           Charge          ....    0
 Multiplicity           Mult            ....    1
 Number of Electrons    NEL             ....   36
Dispersion correction           -0.001037068
FINAL SINGLE POINT ENERGY      -231.466762574855
Dispersion correction           -0.000245977
FINAL SINGLE POINT ENERGY      -115.733284631736

CARTESIAN COORDINATES (ANGSTROEM)
---------------------------------
  C     -5.106868    5.364977    4.076705
  O     -4.860362    6.614453    3.509791
  H     -4.817998    6.497377    2.536860
  H     -6.164157    5.347365    4.411321
  H     -4.952286    4.468046    3.431176
  H     -4.499261    5.272901    4.938925
  C     -2.423555    9.589600    4.384260
  O     -2.114661   10.943369    4.153612
  H     -2.578880   11.475667    4.847472
  H     -3.340220    9.227224    3.991830
  H     -1.603882    8.984377    4.046865
  H     -2.506658    9.472759    5.502255

 Multiplicity           Mult            ....    1
 Number of Electrons    NEL             ....   18
 Basis Dimension        Dim             ....  172

ORBITAL ENERGIES
----------------

  NO   OCC          E(Eh)            E(eV)
   0   2.0000     -19.231742      -523.3223
   1   2.0000     -10.310210      -280.5551
   2   2.0000      -1.132901       -30.8278
   3   2.0000      -0.793861       -21.6021
   4   2.0000      -0.609946       -16.5975
   5   2.0000      -0.542855       -14.7718
   6   2.0000      -0.530614       -14.4387
   7   2.0000      -0.429892       -11.6980
   8   2.0000      -0.372610       -10.1392
   9   0.0000       0.082268         2.2386
  10   0.0000       0.108722         2.9585
  11   0.0000       0.144916         3.9434
  12   0.0000       0.170808         4.6479
  13   0.0000       0.192463         5.2372

MULLIKEN ATOMIC CHARGES
-----------------------
   0 C :   -0.000118
   1 O :   -0.000032
   2 H :   -0.000113
   3 H :    0.000005
   4 H :    0.000001
   5 H :    0.000013
   6 C :   -0.159382
   7 O :   -0.474954
   8 H :    0.319567
   9 H :    0.101163
  10 H :    0.121031
  11 H :    0.092819
Sum of atomic charges:    0.0000000

LOEWDIN ATOMIC CHARGES
----------------------
   0 C :   -0.000143
   1 O :   -0.001252
   2 H :   -0.000275
   3 H :   -0.000003
   4 H :   -0.000003
   5 H :   -0.000013
   6 C :   -0.388514
   7 O :   -0.087545
   8 H :    0.187646
   9 H :    0.085114
  10 H :    0.103376
  11 H :    0.101611

  Mayer bond orders larger than 0.1
B(  6-C ,  7-O ) :   1.0067 B(  6-C ,  9-H ) :   0.9652 B(  6-C , 10-H ) :   0.9739
B(  6-C , 11-H ) :   0.9955 B(  7-O ,  8-H ) :   0.8947

Dispersion correction           -0.000233921
FINAL SINGLE POINT ENERGY      -115.731983913948

DIPOLE MOMENT
-------------
                                X             Y             Z
Electronic contribution:      0.44630       1.67182      -0.60256
Nuclear contribution   :     -0.85144      -1.86958       1.12832
                        -----------------------------------------
Total Dipole Moment    :     -0.40514      -0.19776       0.52575
                        -----------------------------------------
Magnitude (a.u.)       :      0.69258
Magnitude (Debye)      :      1.76040

Rotational constants in cm-1:     4.279776     0.842441     0.805668
Rotational constants in MHz : 128304.461866 25255.737685 24153.331973

                             ****ORCA TERMINATED NORMALLY****
TOTAL RUN TIME: 0 days 0 hours 0 minutes 41 seconds 856 msec
