                         Program Version 4.1.2  - RELEASE  -
|  1> #Run DFT-D3 single point of the dimer
|  2> ! wB97X-D3 def2-TZVP TIGHTSCF CHELPG PMODEL PAL8
|  3>
|  4> %base "18-53_DFT_AB"
|  5>
|  6> %scf
|  7> MaxIter 1000
|  8> end
|  9>
| 10> * xyz 0 1
| 11>   C                      1.360282             -4.777872            -0.154041
| 12>   O                      0.112124             -4.454516            0.466890
| 13>   H                      0.255263             -3.645348            0.929075
| 14>   H                      1.579164             -4.006664            -0.829384
| 15>   H                      2.089112             -4.804114            0.602860
| 16>   H                      1.466500             -5.741228            -0.685839
| 17>   C                      -0.818865            -8.262982            3.889639
| 18>   O                      -0.804588            -7.200547            4.826738
| 19>   H                      -1.389967            -6.553482            4.480454
| 20>   H                      -0.558544            -9.264849            4.220882
| 21>   H                      -1.754608            -8.437277            3.463253
| 22>   H                      -0.071885            -7.988574            3.128661
| 23> *
| 24>
| 25> #Run DFT-D3 single point of the molecule with dimer basis set
| 26> $new_job
| 27> %base "18-53_DFT_A"
| 28> ! wB97X-D3 def2-TZVP TIGHTSCF CHELPG PMODEL
| 29>
| 30> %scf
| 31> MaxIter 1000
| 32> end
| 33>
| 34> * xyz 0 1
| 35>   C                      1.360282             -4.777872            -0.154041
| 36>   O                      0.112124             -4.454516            0.466890
| 37>   H                      0.255263             -3.645348            0.929075
| 38>   H                      1.579164             -4.006664            -0.829384
| 39>   H                      2.089112             -4.804114            0.602860
| 40>   H                      1.466500             -5.741228            -0.685839
| 41>   C                    : -0.818865            -8.262982            3.889639
| 42>   O                    : -0.804588            -7.200547            4.826738
| 43>   H                    : -1.389967            -6.553482            4.480454
| 44>   H                    : -0.558544            -9.264849            4.220882
| 45>   H                    : -1.754608            -8.437277            3.463253
| 46>   H                    : -0.071885            -7.988574            3.128661
| 47> *
| 48>
| 49> #Run DFT-D3 single point of the particle with dimer basis set
| 50> $new_job
| 51> %base "18-53_DFT_B"
| 52> ! wB97X-D3 def2-TZVP TIGHTSCF CHELPG PMODEL
| 53>
| 54> %scf
| 55> MaxIter 1000
| 56> end
| 57>
| 58> * xyz 0 1
| 59>   C                    : 1.360282             -4.777872            -0.154041
| 60>   O                    : 0.112124             -4.454516            0.466890
| 61>   H                    : 0.255263             -3.645348            0.929075
| 62>   H                    : 1.579164             -4.006664            -0.829384
| 63>   H                    : 2.089112             -4.804114            0.602860
| 64>   H                    : 1.466500             -5.741228            -0.685839
| 65>   C                      -0.818865            -8.262982            3.889639
| 66>   O                      -0.804588            -7.200547            4.826738
| 67>   H                      -1.389967            -6.553482            4.480454
| 68>   H                      -0.558544            -9.264849            4.220882
| 69>   H                      -1.754608            -8.437277            3.463253
| 70>   H                      -0.071885            -7.988574            3.128661
| 71> *
| 72>
| 73>                          ****END OF INPUT****
 Total Charge           Charge          ....    0
 Multiplicity           Mult            ....    1
 Number of Electrons    NEL             ....   36
Dispersion correction           -0.000646390
FINAL SINGLE POINT ENERGY      -231.457786282205
Dispersion correction           -0.000217386
FINAL SINGLE POINT ENERGY      -115.728487331892

CARTESIAN COORDINATES (ANGSTROEM)
---------------------------------
  C      1.360282   -4.777872   -0.154041
  O      0.112124   -4.454516    0.466890
  H      0.255263   -3.645348    0.929075
  H      1.579164   -4.006664   -0.829384
  H      2.089112   -4.804114    0.602860
  H      1.466500   -5.741228   -0.685839
  C     -0.818865   -8.262982    3.889639
  O     -0.804588   -7.200547    4.826738
  H     -1.389967   -6.553482    4.480454
  H     -0.558544   -9.264849    4.220882
  H     -1.754608   -8.437277    3.463253
  H     -0.071885   -7.988574    3.128661

 Multiplicity           Mult            ....    1
 Number of Electrons    NEL             ....   18
 Basis Dimension        Dim             ....  172

ORBITAL ENERGIES
----------------

  NO   OCC          E(Eh)            E(eV)
   0   2.0000     -19.228517      -523.2345
   1   2.0000     -10.307636      -280.4850
   2   2.0000      -1.141236       -31.0546
   3   2.0000      -0.802103       -21.8263
   4   2.0000      -0.614986       -16.7346
   5   2.0000      -0.546138       -14.8612
   6   2.0000      -0.530347       -14.4315
   7   2.0000      -0.433561       -11.7978
   8   2.0000      -0.373606       -10.1663
   9   0.0000       0.082747         2.2517
  10   0.0000       0.118787         3.2324
  11   0.0000       0.151779         4.1301
  12   0.0000       0.164814         4.4848
  13   0.0000       0.184788         5.0283

MULLIKEN ATOMIC CHARGES
-----------------------
   0 C :   -0.000016
   1 O :   -0.000002
   2 H :   -0.000002
   3 H :   -0.000002
   4 H :   -0.000005
   5 H :   -0.000020
   6 C :   -0.172397
   7 O :   -0.465174
   8 H :    0.313020
   9 H :    0.112554
  10 H :    0.107027
  11 H :    0.105018
Sum of atomic charges:    0.0000000

LOEWDIN ATOMIC CHARGES
----------------------
   0 C :   -0.000045
   1 O :   -0.000008
   2 H :   -0.000004
   3 H :   -0.000001
   4 H :   -0.000006
   5 H :   -0.000009
   6 C :   -0.380454
   7 O :   -0.068476
   8 H :    0.157897
   9 H :    0.105413
  10 H :    0.085122
  11 H :    0.100571

  Mayer bond orders larger than 0.1
B(  6-C ,  7-O ) :   0.9988 B(  6-C ,  9-H ) :   0.9707 B(  6-C , 10-H ) :   0.9789
B(  6-C , 11-H ) :   0.9882 B(  7-O ,  8-H ) :   0.9045

Dispersion correction           -0.000230533
FINAL SINGLE POINT ENERGY      -115.728474516170

DIPOLE MOMENT
-------------
                                X             Y             Z
Electronic contribution:      0.02639       1.29097       1.37310
Nuclear contribution   :     -0.43610      -1.32082      -1.96643
                        -----------------------------------------
Total Dipole Moment    :     -0.40971      -0.02985      -0.59333
                        -----------------------------------------
Magnitude (a.u.)       :      0.72166
Magnitude (Debye)      :      1.83432

Rotational constants in cm-1:     4.552281     0.822764     0.804249
Rotational constants in MHz : 136473.966037 24665.845590 24110.782195

                             ****ORCA TERMINATED NORMALLY****
TOTAL RUN TIME: 0 days 0 hours 0 minutes 52 seconds 512 msec
