                         Program Version 4.1.2  - RELEASE  -
|  1> #Run DFT-D3 single point of the dimer
|  2> ! wB97X-D3 def2-TZVP TIGHTSCF CHELPG PMODEL PAL8
|  3>
|  4> %base "14-214_DFT_AB"
|  5>
|  6> %scf
|  7> MaxIter 1000
|  8> end
|  9>
| 10> * xyz 0 1
| 11>   C                      -5.353303            11.069871            -8.863530
| 12>   O                      -6.223960            10.129537            -9.440476
| 13>   H                      -7.113445            10.492733            -9.573066
| 14>   H                      -5.404248            12.067274            -9.320768
| 15>   H                      -5.585512            11.032351            -7.805065
| 16>   H                      -4.332795            10.687860            -8.945880
| 17>   C                      -9.932416            10.728433            -10.477990
| 18>   O                      -8.944205            10.670553            -9.493894
| 19>   H                      -9.483111            10.511934            -8.661298
| 20>   H                      -9.756294            11.556224            -11.200444
| 21>   H                      -10.032710           9.830993             -11.101333
| 22>   H                      -10.874748           10.985070            -9.980425
| 23> *
| 24>
| 25> #Run DFT-D3 single point of the molecule with dimer basis set
| 26> $new_job
| 27> %base "14-214_DFT_A"
| 28> ! wB97X-D3 def2-TZVP TIGHTSCF CHELPG PMODEL
| 29>
| 30> %scf
| 31> MaxIter 1000
| 32> end
| 33>
| 34> * xyz 0 1
| 35>   C                      -5.353303            11.069871            -8.863530
| 36>   O                      -6.223960            10.129537            -9.440476
| 37>   H                      -7.113445            10.492733            -9.573066
| 38>   H                      -5.404248            12.067274            -9.320768
| 39>   H                      -5.585512            11.032351            -7.805065
| 40>   H                      -4.332795            10.687860            -8.945880
| 41>   C                    : -9.932416            10.728433            -10.477990
| 42>   O                    : -8.944205            10.670553            -9.493894
| 43>   H                    : -9.483111            10.511934            -8.661298
| 44>   H                    : -9.756294            11.556224            -11.200444
| 45>   H                    : -10.032710           9.830993             -11.101333
| 46>   H                    : -10.874748           10.985070            -9.980425
| 47> *
| 48>
| 49> #Run DFT-D3 single point of the particle with dimer basis set
| 50> $new_job
| 51> %base "14-214_DFT_B"
| 52> ! wB97X-D3 def2-TZVP TIGHTSCF CHELPG PMODEL
| 53>
| 54> %scf
| 55> MaxIter 1000
| 56> end
| 57>
| 58> * xyz 0 1
| 59>   C                    : -5.353303            11.069871            -8.863530
| 60>   O                    : -6.223960            10.129537            -9.440476
| 61>   H                    : -7.113445            10.492733            -9.573066
| 62>   H                    : -5.404248            12.067274            -9.320768
| 63>   H                    : -5.585512            11.032351            -7.805065
| 64>   H                    : -4.332795            10.687860            -8.945880
| 65>   C                      -9.932416            10.728433            -10.477990
| 66>   O                      -8.944205            10.670553            -9.493894
| 67>   H                      -9.483111            10.511934            -8.661298
| 68>   H                      -9.756294            11.556224            -11.200444
| 69>   H                      -10.032710           9.830993             -11.101333
| 70>   H                      -10.874748           10.985070            -9.980425
| 71> *
| 72>
| 73>                          ****END OF INPUT****
 Total Charge           Charge          ....    0
 Multiplicity           Mult            ....    1
 Number of Electrons    NEL             ....   36
Dispersion correction           -0.001480716
FINAL SINGLE POINT ENERGY      -231.471848219898
Dispersion correction           -0.000235889
FINAL SINGLE POINT ENERGY      -115.734115041939

CARTESIAN COORDINATES (ANGSTROEM)
---------------------------------
  C     -5.353303   11.069871   -8.863530
  O     -6.223960   10.129537   -9.440476
  H     -7.113445   10.492733   -9.573066
  H     -5.404248   12.067274   -9.320768
  H     -5.585512   11.032351   -7.805065
  H     -4.332795   10.687860   -8.945880
  C     -9.932416   10.728433  -10.477990
  O     -8.944205   10.670553   -9.493894
  H     -9.483111   10.511934   -8.661298
  H     -9.756294   11.556224  -11.200444
  H    -10.032710    9.830993  -11.101333
  H    -10.874748   10.985070   -9.980425

 Multiplicity           Mult            ....    1
 Number of Electrons    NEL             ....   18
 Basis Dimension        Dim             ....  172

ORBITAL ENERGIES
----------------

  NO   OCC          E(Eh)            E(eV)
   0   2.0000     -19.237470      -523.4782
   1   2.0000     -10.313908      -280.6557
   2   2.0000      -1.139769       -31.0147
   3   2.0000      -0.786839       -21.4110
   4   2.0000      -0.610631       -16.6161
   5   2.0000      -0.544677       -14.8214
   6   2.0000      -0.529809       -14.4168
   7   2.0000      -0.431671       -11.7464
   8   2.0000      -0.373623       -10.1668
   9   0.0000       0.096188         2.6174
  10   0.0000       0.116025         3.1572
  11   0.0000       0.151686         4.1276
  12   0.0000       0.189631         5.1601
  13   0.0000       0.204146         5.5551

MULLIKEN ATOMIC CHARGES
-----------------------
   0 C :    0.000600
   1 O :    0.001786
   2 H :   -0.012147
   3 H :   -0.000451
   4 H :   -0.000420
   5 H :   -0.000115
   6 C :   -0.169075
   7 O :   -0.450212
   8 H :    0.320508
   9 H :    0.109394
  10 H :    0.104196
  11 H :    0.095937
Sum of atomic charges:    0.0000000

LOEWDIN ATOMIC CHARGES
----------------------
   0 C :   -0.002073
   1 O :   -0.007827
   2 H :   -0.052280
   3 H :   -0.000150
   4 H :   -0.000122
   5 H :   -0.000038
   6 C :   -0.408925
   7 O :   -0.029391
   8 H :    0.202373
   9 H :    0.105141
  10 H :    0.095225
  11 H :    0.098065

  Mayer bond orders larger than 0.1
B(  6-C ,  7-O ) :   1.0106 B(  6-C ,  9-H ) :   0.9781 B(  6-C , 10-H ) :   0.9695
B(  6-C , 11-H ) :   0.9865 B(  7-O ,  8-H ) :   0.8932

Dispersion correction           -0.000237149
FINAL SINGLE POINT ENERGY      -115.730559763182

DIPOLE MOMENT
-------------
                                X             Y             Z
Electronic contribution:      1.46922      -0.14111       1.19949
Nuclear contribution   :     -2.18633       0.08384      -1.04288
                        -----------------------------------------
Total Dipole Moment    :     -0.71711      -0.05727       0.15660
                        -----------------------------------------
Magnitude (a.u.)       :      0.73624
Magnitude (Debye)      :      1.87138

Rotational constants in cm-1:     4.173654     0.850336     0.814825
Rotational constants in MHz : 125122.988255 25492.441227 24427.837125

                             ****ORCA TERMINATED NORMALLY****
TOTAL RUN TIME: 0 days 0 hours 1 minutes 7 seconds 483 msec
