                         Program Version 4.1.2  - RELEASE  -
|  1> #Run DFT-D3 single point of the dimer
|  2> ! wB97X-D3 def2-TZVP TIGHTSCF CHELPG PMODEL PAL8
|  3>
|  4> %base "19-208_DFT_AB"
|  5>
|  6> %scf
|  7> MaxIter 1000
|  8> end
|  9>
| 10> * xyz 0 1
| 11>   C                      4.786815             -6.918655            -5.102293
| 12>   O                      5.975221             -6.467177            -5.763916
| 13>   H                      5.586546             -5.956710            -6.485934
| 14>   H                      3.852278             -6.570519            -5.593039
| 15>   H                      4.767182             -8.010396            -5.028749
| 16>   H                      4.846948             -6.625967            -4.050205
| 17>   C                      3.148017             -4.071481            -7.203145
| 18>   O                      4.198127             -4.963453            -7.655729
| 19>   H                      4.425559             -4.809309            -8.546313
| 20>   H                      2.432921             -4.641483            -6.612205
| 21>   H                      3.665549             -3.264366            -6.604897
| 22>   H                      2.568764             -3.566599            -8.053060
| 23> *
| 24>
| 25> #Run DFT-D3 single point of the molecule with dimer basis set
| 26> $new_job
| 27> %base "19-208_DFT_A"
| 28> ! wB97X-D3 def2-TZVP TIGHTSCF CHELPG PMODEL
| 29>
| 30> %scf
| 31> MaxIter 1000
| 32> end
| 33>
| 34> * xyz 0 1
| 35>   C                      4.786815             -6.918655            -5.102293
| 36>   O                      5.975221             -6.467177            -5.763916
| 37>   H                      5.586546             -5.956710            -6.485934
| 38>   H                      3.852278             -6.570519            -5.593039
| 39>   H                      4.767182             -8.010396            -5.028749
| 40>   H                      4.846948             -6.625967            -4.050205
| 41>   C                    : 3.148017             -4.071481            -7.203145
| 42>   O                    : 4.198127             -4.963453            -7.655729
| 43>   H                    : 4.425559             -4.809309            -8.546313
| 44>   H                    : 2.432921             -4.641483            -6.612205
| 45>   H                    : 3.665549             -3.264366            -6.604897
| 46>   H                    : 2.568764             -3.566599            -8.053060
| 47> *
| 48>
| 49> #Run DFT-D3 single point of the particle with dimer basis set
| 50> $new_job
| 51> %base "19-208_DFT_B"
| 52> ! wB97X-D3 def2-TZVP TIGHTSCF CHELPG PMODEL
| 53>
| 54> %scf
| 55> MaxIter 1000
| 56> end
| 57>
| 58> * xyz 0 1
| 59>   C                    : 4.786815             -6.918655            -5.102293
| 60>   O                    : 5.975221             -6.467177            -5.763916
| 61>   H                    : 5.586546             -5.956710            -6.485934
| 62>   H                    : 3.852278             -6.570519            -5.593039
| 63>   H                    : 4.767182             -8.010396            -5.028749
| 64>   H                    : 4.846948             -6.625967            -4.050205
| 65>   C                      3.148017             -4.071481            -7.203145
| 66>   O                      4.198127             -4.963453            -7.655729
| 67>   H                      4.425559             -4.809309            -8.546313
| 68>   H                      2.432921             -4.641483            -6.612205
| 69>   H                      3.665549             -3.264366            -6.604897
| 70>   H                      2.568764             -3.566599            -8.053060
| 71> *
| 72>
| 73>                          ****END OF INPUT****
 Total Charge           Charge          ....    0
 Multiplicity           Mult            ....    1
 Number of Electrons    NEL             ....   36
Dispersion correction           -0.002058995
FINAL SINGLE POINT ENERGY      -231.473170627256
Dispersion correction           -0.000246955
FINAL SINGLE POINT ENERGY      -115.732138032302

CARTESIAN COORDINATES (ANGSTROEM)
---------------------------------
  C      4.786815   -6.918655   -5.102293
  O      5.975221   -6.467177   -5.763916
  H      5.586546   -5.956710   -6.485934
  H      3.852278   -6.570519   -5.593039
  H      4.767182   -8.010396   -5.028749
  H      4.846948   -6.625967   -4.050205
  C      3.148017   -4.071481   -7.203145
  O      4.198127   -4.963453   -7.655729
  H      4.425559   -4.809309   -8.546313
  H      2.432921   -4.641483   -6.612205
  H      3.665549   -3.264366   -6.604897
  H      2.568764   -3.566599   -8.053060

 Multiplicity           Mult            ....    1
 Number of Electrons    NEL             ....   18
 Basis Dimension        Dim             ....  172

ORBITAL ENERGIES
----------------

  NO   OCC          E(Eh)            E(eV)
   0   2.0000     -19.225727      -523.1586
   1   2.0000     -10.326360      -280.9945
   2   2.0000      -1.128872       -30.7182
   3   2.0000      -0.794730       -21.6257
   4   2.0000      -0.605463       -16.4755
   5   2.0000      -0.540543       -14.7089
   6   2.0000      -0.516782       -14.0624
   7   2.0000      -0.432160       -11.7597
   8   2.0000      -0.374134       -10.1807
   9   0.0000       0.101261         2.7554
  10   0.0000       0.128196         3.4884
  11   0.0000       0.149420         4.0659
  12   0.0000       0.183831         5.0023
  13   0.0000       0.188986         5.1426

MULLIKEN ATOMIC CHARGES
-----------------------
   0 C :    0.004670
   1 O :   -0.001599
   2 H :   -0.009493
   3 H :   -0.003415
   4 H :   -0.000043
   5 H :   -0.000307
   6 C :   -0.169335
   7 O :   -0.477048
   8 H :    0.309862
   9 H :    0.124634
  10 H :    0.114045
  11 H :    0.108031
Sum of atomic charges:    0.0000000

LOEWDIN ATOMIC CHARGES
----------------------
   0 C :   -0.006861
   1 O :   -0.003333
   2 H :   -0.032538
   3 H :   -0.004887
   4 H :   -0.000045
   5 H :   -0.000062
   6 C :   -0.359515
   7 O :   -0.054917
   8 H :    0.145055
   9 H :    0.103373
  10 H :    0.107018
  11 H :    0.106712

  Mayer bond orders larger than 0.1
B(  6-C ,  7-O ) :   0.9855 B(  6-C ,  9-H ) :   0.9728 B(  6-C , 10-H ) :   0.9777
B(  6-C , 11-H ) :   0.9697 B(  7-O ,  8-H ) :   0.9035

Dispersion correction           -0.000276373
FINAL SINGLE POINT ENERGY      -115.731792678168

DIPOLE MOMENT
-------------
                                X             Y             Z
Electronic contribution:      1.24362      -1.19472      -0.43817
Nuclear contribution   :     -1.54947       1.66817       0.02184
                        -----------------------------------------
Total Dipole Moment    :     -0.30585       0.47344      -0.41633
                        -----------------------------------------
Magnitude (a.u.)       :      0.70073
Magnitude (Debye)      :      1.78112

Rotational constants in cm-1:     4.150095     0.790803     0.769531
Rotational constants in MHz : 124416.731717 23707.679323 23069.954072

                             ****ORCA TERMINATED NORMALLY****
TOTAL RUN TIME: 0 days 0 hours 0 minutes 51 seconds 641 msec
