                         Program Version 4.1.2  - RELEASE  -
|  1> #Run DFT-D3 single point of the dimer
|  2> ! wB97X-D3 def2-TZVP TIGHTSCF CHELPG PMODEL PAL8
|  3>
|  4> %base "1-109_DFT_AB"
|  5>
|  6> %scf
|  7> MaxIter 1000
|  8> end
|  9>
| 10> * xyz 0 1
| 11>   C                      -0.021919            8.009453             2.783988
| 12>   O                      -0.528219            7.199774             3.833651
| 13>   H                      0.125578             6.504699             4.084652
| 14>   H                      0.915588             8.444604             3.152632
| 15>   H                      0.145282             7.447361             1.830952
| 16>   H                      -0.773289            8.872872             2.476492
| 17>   C                      -0.914828            10.289450            -0.296619
| 18>   O                      -0.264873            9.845473             -1.417564
| 19>   H                      0.282445             9.135165             -1.073404
| 20>   H                      -1.731806            10.938854            -0.510970
| 21>   H                      -1.192972            9.332177             0.157957
| 22>   H                      -0.219820            10.825538            0.457156
| 23> *
| 24>
| 25> #Run DFT-D3 single point of the molecule with dimer basis set
| 26> $new_job
| 27> %base "1-109_DFT_A"
| 28> ! wB97X-D3 def2-TZVP TIGHTSCF CHELPG PMODEL
| 29>
| 30> %scf
| 31> MaxIter 1000
| 32> end
| 33>
| 34> * xyz 0 1
| 35>   C                      -0.021919            8.009453             2.783988
| 36>   O                      -0.528219            7.199774             3.833651
| 37>   H                      0.125578             6.504699             4.084652
| 38>   H                      0.915588             8.444604             3.152632
| 39>   H                      0.145282             7.447361             1.830952
| 40>   H                      -0.773289            8.872872             2.476492
| 41>   C                    : -0.914828            10.289450            -0.296619
| 42>   O                    : -0.264873            9.845473             -1.417564
| 43>   H                    : 0.282445             9.135165             -1.073404
| 44>   H                    : -1.731806            10.938854            -0.510970
| 45>   H                    : -1.192972            9.332177             0.157957
| 46>   H                    : -0.219820            10.825538            0.457156
| 47> *
| 48>
| 49> #Run DFT-D3 single point of the particle with dimer basis set
| 50> $new_job
| 51> %base "1-109_DFT_B"
| 52> ! wB97X-D3 def2-TZVP TIGHTSCF CHELPG PMODEL
| 53>
| 54> %scf
| 55> MaxIter 1000
| 56> end
| 57>
| 58> * xyz 0 1
| 59>   C                    : -0.021919            8.009453             2.783988
| 60>   O                    : -0.528219            7.199774             3.833651
| 61>   H                    : 0.125578             6.504699             4.084652
| 62>   H                    : 0.915588             8.444604             3.152632
| 63>   H                    : 0.145282             7.447361             1.830952
| 64>   H                    : -0.773289            8.872872             2.476492
| 65>   C                      -0.914828            10.289450            -0.296619
| 66>   O                      -0.264873            9.845473             -1.417564
| 67>   H                      0.282445             9.135165             -1.073404
| 68>   H                      -1.731806            10.938854            -0.510970
| 69>   H                      -1.192972            9.332177             0.157957
| 70>   H                      -0.219820            10.825538            0.457156
| 71> *
| 72>
| 73>                          ****END OF INPUT****
 Total Charge           Charge          ....    0
 Multiplicity           Mult            ....    1
 Number of Electrons    NEL             ....   36
Dispersion correction           -0.001510687
FINAL SINGLE POINT ENERGY      -231.454739110561
Dispersion correction           -0.000261686
FINAL SINGLE POINT ENERGY      -115.729141362726

CARTESIAN COORDINATES (ANGSTROEM)
---------------------------------
  C     -0.021919    8.009453    2.783988
  O     -0.528219    7.199774    3.833651
  H      0.125578    6.504699    4.084652
  H      0.915588    8.444604    3.152632
  H      0.145282    7.447361    1.830952
  H     -0.773289    8.872872    2.476492
  C     -0.914828   10.289450   -0.296619
  O     -0.264873    9.845473   -1.417564
  H      0.282445    9.135165   -1.073404
  H     -1.731806   10.938854   -0.510970
  H     -1.192972    9.332177    0.157957
  H     -0.219820   10.825538    0.457156

 Multiplicity           Mult            ....    1
 Number of Electrons    NEL             ....   18
 Basis Dimension        Dim             ....  172

ORBITAL ENERGIES
----------------

  NO   OCC          E(Eh)            E(eV)
   0   2.0000     -19.229588      -523.2637
   1   2.0000     -10.314149      -280.6623
   2   2.0000      -1.156478       -31.4694
   3   2.0000      -0.786754       -21.4087
   4   2.0000      -0.618736       -16.8367
   5   2.0000      -0.550375       -14.9765
   6   2.0000      -0.535655       -14.5759
   7   2.0000      -0.435816       -11.8592
   8   2.0000      -0.364513        -9.9189
   9   0.0000       0.074728         2.0334
  10   0.0000       0.115682         3.1479
  11   0.0000       0.148978         4.0539
  12   0.0000       0.175398         4.7728
  13   0.0000       0.182813         4.9746

MULLIKEN ATOMIC CHARGES
-----------------------
   0 C :    0.001566
   1 O :   -0.000001
   2 H :    0.000003
   3 H :   -0.000233
   4 H :   -0.000051
   5 H :   -0.003867
   6 C :   -0.160119
   7 O :   -0.449925
   8 H :    0.316238
   9 H :    0.122874
  10 H :    0.092413
  11 H :    0.081102
Sum of atomic charges:    0.0000000

LOEWDIN ATOMIC CHARGES
----------------------
   0 C :   -0.004072
   1 O :   -0.000017
   2 H :   -0.000003
   3 H :   -0.000069
   4 H :   -0.000744
   5 H :   -0.005246
   6 C :   -0.419388
   7 O :   -0.046225
   8 H :    0.177172
   9 H :    0.099618
  10 H :    0.099753
  11 H :    0.099221

  Mayer bond orders larger than 0.1
B(  6-C ,  7-O ) :   1.0029 B(  6-C ,  9-H ) :   0.9685 B(  6-C , 10-H ) :   1.0038
B(  6-C , 11-H ) :   0.9651 B(  7-O ,  8-H ) :   0.9014

Dispersion correction           -0.000199725
FINAL SINGLE POINT ENERGY      -115.725188772023

DIPOLE MOMENT
-------------
                                X             Y             Z
Electronic contribution:      0.63909      -0.36290      -1.69028
Nuclear contribution   :     -0.55966       0.06957       2.27014
                        -----------------------------------------
Total Dipole Moment    :      0.07943      -0.29333       0.57986
                        -----------------------------------------
Magnitude (a.u.)       :      0.65467
Magnitude (Debye)      :      1.66404

Rotational constants in cm-1:     4.138791     0.890979     0.852079
Rotational constants in MHz : 124077.832559 26710.889992 25544.680553

                             ****ORCA TERMINATED NORMALLY****
TOTAL RUN TIME: 0 days 0 hours 4 minutes 15 seconds 64 msec
