                         Program Version 4.1.2  - RELEASE  -
|  1> #Run DFT-D3 single point of the dimer
|  2> ! wB97X-D3 def2-TZVP TIGHTSCF CHELPG PMODEL PAL8
|  3>
|  4> %base "16-10_DFT_AB"
|  5>
|  6> %scf
|  7> MaxIter 1000
|  8> end
|  9>
| 10> * xyz 0 1
| 11>   C                      -3.613576            2.949622             3.934506
| 12>   O                      -3.601508            3.698823             5.159507
| 13>   H                      -2.638820            3.713132             5.390762
| 14>   H                      -2.909974            3.467466             3.239017
| 15>   H                      -3.265800            1.935287             3.994618
| 16>   H                      -4.596142            2.930245             3.440482
| 17>   C                      -2.777194            -0.270792            0.949009
| 18>   O                      -1.995689            -1.417188            1.100612
| 19>   H                      -1.644728            -1.674541            1.990131
| 20>   H                      -2.231855            0.680778             0.936263
| 21>   H                      -3.323798            -0.297364            0.091819
| 22>   H                      -3.522735            -0.224258            1.774500
| 23> *
| 24>
| 25> #Run DFT-D3 single point of the molecule with dimer basis set
| 26> $new_job
| 27> %base "16-10_DFT_A"
| 28> ! wB97X-D3 def2-TZVP TIGHTSCF CHELPG PMODEL
| 29>
| 30> %scf
| 31> MaxIter 1000
| 32> end
| 33>
| 34> * xyz 0 1
| 35>   C                      -3.613576            2.949622             3.934506
| 36>   O                      -3.601508            3.698823             5.159507
| 37>   H                      -2.638820            3.713132             5.390762
| 38>   H                      -2.909974            3.467466             3.239017
| 39>   H                      -3.265800            1.935287             3.994618
| 40>   H                      -4.596142            2.930245             3.440482
| 41>   C                    : -2.777194            -0.270792            0.949009
| 42>   O                    : -1.995689            -1.417188            1.100612
| 43>   H                    : -1.644728            -1.674541            1.990131
| 44>   H                    : -2.231855            0.680778             0.936263
| 45>   H                    : -3.323798            -0.297364            0.091819
| 46>   H                    : -3.522735            -0.224258            1.774500
| 47> *
| 48>
| 49> #Run DFT-D3 single point of the particle with dimer basis set
| 50> $new_job
| 51> %base "16-10_DFT_B"
| 52> ! wB97X-D3 def2-TZVP TIGHTSCF CHELPG PMODEL
| 53>
| 54> %scf
| 55> MaxIter 1000
| 56> end
| 57>
| 58> * xyz 0 1
| 59>   C                    : -3.613576            2.949622             3.934506
| 60>   O                    : -3.601508            3.698823             5.159507
| 61>   H                    : -2.638820            3.713132             5.390762
| 62>   H                    : -2.909974            3.467466             3.239017
| 63>   H                    : -3.265800            1.935287             3.994618
| 64>   H                    : -4.596142            2.930245             3.440482
| 65>   C                      -2.777194            -0.270792            0.949009
| 66>   O                      -1.995689            -1.417188            1.100612
| 67>   H                      -1.644728            -1.674541            1.990131
| 68>   H                      -2.231855            0.680778             0.936263
| 69>   H                      -3.323798            -0.297364            0.091819
| 70>   H                      -3.522735            -0.224258            1.774500
| 71> *
| 72>
| 73>                          ****END OF INPUT****
 Total Charge           Charge          ....    0
 Multiplicity           Mult            ....    1
 Number of Electrons    NEL             ....   36
Dispersion correction           -0.001102888
FINAL SINGLE POINT ENERGY      -231.459487977501
Dispersion correction           -0.000238810
FINAL SINGLE POINT ENERGY      -115.732047352896

CARTESIAN COORDINATES (ANGSTROEM)
---------------------------------
  C     -3.613576    2.949622    3.934506
  O     -3.601508    3.698823    5.159507
  H     -2.638820    3.713132    5.390762
  H     -2.909974    3.467466    3.239017
  H     -3.265800    1.935287    3.994618
  H     -4.596142    2.930245    3.440482
  C     -2.777194   -0.270792    0.949009
  O     -1.995689   -1.417188    1.100612
  H     -1.644728   -1.674541    1.990131
  H     -2.231855    0.680778    0.936263
  H     -3.323798   -0.297364    0.091819
  H     -3.522735   -0.224258    1.774500

 Multiplicity           Mult            ....    1
 Number of Electrons    NEL             ....   18
 Basis Dimension        Dim             ....  172

ORBITAL ENERGIES
----------------

  NO   OCC          E(Eh)            E(eV)
   0   2.0000     -19.227209      -523.1990
   1   2.0000     -10.306793      -280.4621
   2   2.0000      -1.127784       -30.6886
   3   2.0000      -0.803743       -21.8710
   4   2.0000      -0.612522       -16.6676
   5   2.0000      -0.541360       -14.7312
   6   2.0000      -0.538035       -14.6407
   7   2.0000      -0.415332       -11.3018
   8   2.0000      -0.370198       -10.0736
   9   0.0000       0.080613         2.1936
  10   0.0000       0.113843         3.0978
  11   0.0000       0.142935         3.8895
  12   0.0000       0.172685         4.6990
  13   0.0000       0.184493         5.0203

MULLIKEN ATOMIC CHARGES
-----------------------
   0 C :   -0.000495
   1 O :   -0.000020
   2 H :   -0.000007
   3 H :   -0.000137
   4 H :   -0.000145
   5 H :   -0.000007
   6 C :   -0.129128
   7 O :   -0.508932
   8 H :    0.328558
   9 H :    0.093042
  10 H :    0.125391
  11 H :    0.091880
Sum of atomic charges:   -0.0000000

LOEWDIN ATOMIC CHARGES
----------------------
   0 C :   -0.001003
   1 O :   -0.000007
   2 H :   -0.000002
   3 H :   -0.000153
   4 H :   -0.000734
   5 H :   -0.000099
   6 C :   -0.386223
   7 O :   -0.082160
   8 H :    0.186532
   9 H :    0.094872
  10 H :    0.089643
  11 H :    0.099333

  Mayer bond orders larger than 0.1
B(  6-C ,  7-O ) :   1.0012 B(  6-C ,  9-H ) :   0.9737 B(  6-C , 10-H ) :   0.9699
B(  6-C , 11-H ) :   0.9887 B(  7-O ,  8-H ) :   0.8795

Dispersion correction           -0.000265576
FINAL SINGLE POINT ENERGY      -115.726987851857

DIPOLE MOMENT
-------------
                                X             Y             Z
Electronic contribution:      1.03273      -1.49687      -0.02599
Nuclear contribution   :     -1.14247       1.78533       0.53398
                        -----------------------------------------
Total Dipole Moment    :     -0.10974       0.28846       0.50800
                        -----------------------------------------
Magnitude (a.u.)       :      0.59440
Magnitude (Debye)      :      1.51085

Rotational constants in cm-1:     4.618776     0.826181     0.806061
Rotational constants in MHz : 138467.416088 24768.293407 24165.109531

                             ****ORCA TERMINATED NORMALLY****
TOTAL RUN TIME: 0 days 0 hours 1 minutes 3 seconds 548 msec
