                         Program Version 4.1.2  - RELEASE  -
|  1> #Run DFT-D3 single point of the dimer
|  2> ! wB97X-D3 def2-TZVP TIGHTSCF CHELPG PMODEL PAL8
|  3>
|  4> %base "20-174_DFT_AB"
|  5>
|  6> %scf
|  7> MaxIter 1000
|  8> end
|  9>
| 10> * xyz 0 1
| 11>   C                      -2.839331            -4.624066            -9.836446
| 12>   O                      -1.719104            -4.080360            -10.454234
| 13>   H                      -1.376392            -3.306859            -10.009354
| 14>   H                      -3.438690            -3.787081            -9.526616
| 15>   H                      -3.493645            -5.294238            -10.487949
| 16>   H                      -2.562493            -5.181358            -8.961584
| 17>   C                      -1.280630            -1.801478            -7.755175
| 18>   O                      -0.290608            -2.363791            -8.530662
| 19>   H                      0.134370             -2.922786            -7.844523
| 20>   H                      -1.015704            -1.612468            -6.726996
| 21>   H                      -1.746355            -0.885529            -8.222018
| 22>   H                      -2.120418            -2.459426            -7.597261
| 23> *
| 24>
| 25> #Run DFT-D3 single point of the molecule with dimer basis set
| 26> $new_job
| 27> %base "20-174_DFT_A"
| 28> ! wB97X-D3 def2-TZVP TIGHTSCF CHELPG PMODEL
| 29>
| 30> %scf
| 31> MaxIter 1000
| 32> end
| 33>
| 34> * xyz 0 1
| 35>   C                      -2.839331            -4.624066            -9.836446
| 36>   O                      -1.719104            -4.080360            -10.454234
| 37>   H                      -1.376392            -3.306859            -10.009354
| 38>   H                      -3.438690            -3.787081            -9.526616
| 39>   H                      -3.493645            -5.294238            -10.487949
| 40>   H                      -2.562493            -5.181358            -8.961584
| 41>   C                    : -1.280630            -1.801478            -7.755175
| 42>   O                    : -0.290608            -2.363791            -8.530662
| 43>   H                    : 0.134370             -2.922786            -7.844523
| 44>   H                    : -1.015704            -1.612468            -6.726996
| 45>   H                    : -1.746355            -0.885529            -8.222018
| 46>   H                    : -2.120418            -2.459426            -7.597261
| 47> *
| 48>
| 49> #Run DFT-D3 single point of the particle with dimer basis set
| 50> $new_job
| 51> %base "20-174_DFT_B"
| 52> ! wB97X-D3 def2-TZVP TIGHTSCF CHELPG PMODEL
| 53>
| 54> %scf
| 55> MaxIter 1000
| 56> end
| 57>
| 58> * xyz 0 1
| 59>   C                    : -2.839331            -4.624066            -9.836446
| 60>   O                    : -1.719104            -4.080360            -10.454234
| 61>   H                    : -1.376392            -3.306859            -10.009354
| 62>   H                    : -3.438690            -3.787081            -9.526616
| 63>   H                    : -3.493645            -5.294238            -10.487949
| 64>   H                    : -2.562493            -5.181358            -8.961584
| 65>   C                      -1.280630            -1.801478            -7.755175
| 66>   O                      -0.290608            -2.363791            -8.530662
| 67>   H                      0.134370             -2.922786            -7.844523
| 68>   H                      -1.015704            -1.612468            -6.726996
| 69>   H                      -1.746355            -0.885529            -8.222018
| 70>   H                      -2.120418            -2.459426            -7.597261
| 71> *
| 72>
| 73>                          ****END OF INPUT****
 Total Charge           Charge          ....    0
 Multiplicity           Mult            ....    1
 Number of Electrons    NEL             ....   36
Dispersion correction           -0.002123879
FINAL SINGLE POINT ENERGY      -231.465429985642
Dispersion correction           -0.000231840
FINAL SINGLE POINT ENERGY      -115.730974360908

CARTESIAN COORDINATES (ANGSTROEM)
---------------------------------
  C     -2.839331   -4.624066   -9.836446
  O     -1.719104   -4.080360  -10.454234
  H     -1.376392   -3.306859  -10.009354
  H     -3.438690   -3.787081   -9.526616
  H     -3.493645   -5.294238  -10.487949
  H     -2.562493   -5.181358   -8.961584
  C     -1.280630   -1.801478   -7.755175
  O     -0.290608   -2.363791   -8.530662
  H      0.134370   -2.922786   -7.844523
  H     -1.015704   -1.612468   -6.726996
  H     -1.746355   -0.885529   -8.222018
  H     -2.120418   -2.459426   -7.597261

 Multiplicity           Mult            ....    1
 Number of Electrons    NEL             ....   18
 Basis Dimension        Dim             ....  172

ORBITAL ENERGIES
----------------

  NO   OCC          E(Eh)            E(eV)
   0   2.0000     -19.239775      -523.5409
   1   2.0000     -10.310608      -280.5659
   2   2.0000      -1.153871       -31.3984
   3   2.0000      -0.790778       -21.5182
   4   2.0000      -0.623739       -16.9728
   5   2.0000      -0.538369       -14.6498
   6   2.0000      -0.530796       -14.4437
   7   2.0000      -0.445951       -12.1350
   8   2.0000      -0.370126       -10.0716
   9   0.0000       0.089920         2.4468
  10   0.0000       0.122687         3.3385
  11   0.0000       0.151828         4.1314
  12   0.0000       0.184929         5.0322
  13   0.0000       0.191015         5.1978

MULLIKEN ATOMIC CHARGES
-----------------------
   0 C :    0.000641
   1 O :   -0.001796
   2 H :   -0.001030
   3 H :   -0.000303
   4 H :    0.000073
   5 H :   -0.001011
   6 C :   -0.178073
   7 O :   -0.450016
   8 H :    0.319262
   9 H :    0.104673
  10 H :    0.111325
  11 H :    0.096258
Sum of atomic charges:   -0.0000000

LOEWDIN ATOMIC CHARGES
----------------------
   0 C :   -0.004204
   1 O :   -0.005250
   2 H :   -0.030589
   3 H :   -0.001600
   4 H :   -0.000031
   5 H :   -0.000429
   6 C :   -0.427025
   7 O :   -0.022253
   8 H :    0.194778
   9 H :    0.091751
  10 H :    0.114289
  11 H :    0.090564

  Mayer bond orders larger than 0.1
B(  6-C ,  7-O ) :   0.9968 B(  6-C ,  9-H ) :   0.9782 B(  6-C , 10-H ) :   0.9786
B(  6-C , 11-H ) :   0.9739 B(  7-O ,  8-H ) :   0.8953

Dispersion correction           -0.000215745
FINAL SINGLE POINT ENERGY      -115.728142703088

DIPOLE MOMENT
-------------
                                X             Y             Z
Electronic contribution:      1.45173      -0.64433      -1.25314
Nuclear contribution   :     -1.54086       0.49679       1.96365
                        -----------------------------------------
Total Dipole Moment    :     -0.08913      -0.14753       0.71051
                        -----------------------------------------
Magnitude (a.u.)       :      0.73112
Magnitude (Debye)      :      1.85835

Rotational constants in cm-1:     4.316607     0.874941     0.822862
Rotational constants in MHz : 129408.611810 26230.081031 24668.771915

                             ****ORCA TERMINATED NORMALLY****
TOTAL RUN TIME: 0 days 0 hours 1 minutes 11 seconds 457 msec
