                         Program Version 4.1.2  - RELEASE  -
|  1> #Run DFT-D3 single point of the dimer
|  2> ! wB97X-D3 def2-TZVP TIGHTSCF CHELPG PMODEL PAL8
|  3>
|  4> %base "13-164_DFT_AB"
|  5>
|  6> %scf
|  7> MaxIter 1000
|  8> end
|  9>
| 10> * xyz 0 1
| 11>   C                      6.086307             -8.339000            -1.950974
| 12>   O                      7.119211             -9.239033            -2.344616
| 13>   H                      7.924299             -8.996173            -1.920066
| 14>   H                      5.204355             -8.539009            -2.582275
| 15>   H                      5.796177             -8.560167            -0.931467
| 16>   H                      6.260960             -7.216122            -2.022520
| 17>   C                      8.739010             -7.472333            0.384372
| 18>   O                      9.423691             -8.127046            -0.704583
| 19>   H                      10.321739            -8.330021            -0.494526
| 20>   H                      8.843660             -8.055029            1.293101
| 21>   H                      9.152455             -6.457081            0.466172
| 22>   H                      7.672785             -7.384907            0.144877
| 23> *
| 24>
| 25> #Run DFT-D3 single point of the molecule with dimer basis set
| 26> $new_job
| 27> %base "13-164_DFT_A"
| 28> ! wB97X-D3 def2-TZVP TIGHTSCF CHELPG PMODEL
| 29>
| 30> %scf
| 31> MaxIter 1000
| 32> end
| 33>
| 34> * xyz 0 1
| 35>   C                      6.086307             -8.339000            -1.950974
| 36>   O                      7.119211             -9.239033            -2.344616
| 37>   H                      7.924299             -8.996173            -1.920066
| 38>   H                      5.204355             -8.539009            -2.582275
| 39>   H                      5.796177             -8.560167            -0.931467
| 40>   H                      6.260960             -7.216122            -2.022520
| 41>   C                    : 8.739010             -7.472333            0.384372
| 42>   O                    : 9.423691             -8.127046            -0.704583
| 43>   H                    : 10.321739            -8.330021            -0.494526
| 44>   H                    : 8.843660             -8.055029            1.293101
| 45>   H                    : 9.152455             -6.457081            0.466172
| 46>   H                    : 7.672785             -7.384907            0.144877
| 47> *
| 48>
| 49> #Run DFT-D3 single point of the particle with dimer basis set
| 50> $new_job
| 51> %base "13-164_DFT_B"
| 52> ! wB97X-D3 def2-TZVP TIGHTSCF CHELPG PMODEL
| 53>
| 54> %scf
| 55> MaxIter 1000
| 56> end
| 57>
| 58> * xyz 0 1
| 59>   C                    : 6.086307             -8.339000            -1.950974
| 60>   O                    : 7.119211             -9.239033            -2.344616
| 61>   H                    : 7.924299             -8.996173            -1.920066
| 62>   H                    : 5.204355             -8.539009            -2.582275
| 63>   H                    : 5.796177             -8.560167            -0.931467
| 64>   H                    : 6.260960             -7.216122            -2.022520
| 65>   C                      8.739010             -7.472333            0.384372
| 66>   O                      9.423691             -8.127046            -0.704583
| 67>   H                      10.321739            -8.330021            -0.494526
| 68>   H                      8.843660             -8.055029            1.293101
| 69>   H                      9.152455             -6.457081            0.466172
| 70>   H                      7.672785             -7.384907            0.144877
| 71> *
| 72>
| 73>                          ****END OF INPUT****
 Total Charge           Charge          ....    0
 Multiplicity           Mult            ....    1
 Number of Electrons    NEL             ....   36
Dispersion correction           -0.002147234
FINAL SINGLE POINT ENERGY      -231.477282056939
Dispersion correction           -0.000269809
FINAL SINGLE POINT ENERGY      -115.734129076366

CARTESIAN COORDINATES (ANGSTROEM)
---------------------------------
  C      6.086307   -8.339000   -1.950974
  O      7.119211   -9.239033   -2.344616
  H      7.924299   -8.996173   -1.920066
  H      5.204355   -8.539009   -2.582275
  H      5.796177   -8.560167   -0.931467
  H      6.260960   -7.216122   -2.022520
  C      8.739010   -7.472333    0.384372
  O      9.423691   -8.127046   -0.704583
  H     10.321739   -8.330021   -0.494526
  H      8.843660   -8.055029    1.293101
  H      9.152455   -6.457081    0.466172
  H      7.672785   -7.384907    0.144877

 Multiplicity           Mult            ....    1
 Number of Electrons    NEL             ....   18
 Basis Dimension        Dim             ....  172

ORBITAL ENERGIES
----------------

  NO   OCC          E(Eh)            E(eV)
   0   2.0000     -19.223683      -523.1030
   1   2.0000     -10.316141      -280.7165
   2   2.0000      -1.126166       -30.6445
   3   2.0000      -0.798816       -21.7369
   4   2.0000      -0.603340       -16.4177
   5   2.0000      -0.545059       -14.8318
   6   2.0000      -0.526645       -14.3307
   7   2.0000      -0.427415       -11.6305
   8   2.0000      -0.373502       -10.1635
   9   0.0000       0.096092         2.6148
  10   0.0000       0.125536         3.4160
  11   0.0000       0.155351         4.2273
  12   0.0000       0.194774         5.3001
  13   0.0000       0.196981         5.3601

MULLIKEN ATOMIC CHARGES
-----------------------
   0 C :    0.005172
   1 O :   -0.001125
   2 H :   -0.008057
   3 H :    0.000213
   4 H :   -0.001059
   5 H :   -0.000772
   6 C :   -0.152913
   7 O :   -0.486035
   8 H :    0.309257
   9 H :    0.109660
  10 H :    0.106839
  11 H :    0.118820
Sum of atomic charges:   -0.0000000

LOEWDIN ATOMIC CHARGES
----------------------
   0 C :   -0.008308
   1 O :   -0.002866
   2 H :   -0.028552
   3 H :   -0.000030
   4 H :   -0.002256
   5 H :   -0.001320
   6 C :   -0.348566
   7 O :   -0.069886
   8 H :    0.152393
   9 H :    0.095120
  10 H :    0.099306
  11 H :    0.114965

  Mayer bond orders larger than 0.1
B(  6-C ,  7-O ) :   0.9809 B(  6-C ,  9-H ) :   0.9763 B(  6-C , 10-H ) :   0.9767
B(  6-C , 11-H ) :   0.9768 B(  7-O ,  8-H ) :   0.8999

Dispersion correction           -0.000247410
FINAL SINGLE POINT ENERGY      -115.735390545226

DIPOLE MOMENT
-------------
                                X             Y             Z
Electronic contribution:      0.71158      -0.79706      -1.32061
Nuclear contribution   :     -0.42985       0.94513       1.92759
                        -----------------------------------------
Total Dipole Moment    :      0.28173       0.14808       0.60698
                        -----------------------------------------
Magnitude (a.u.)       :      0.68536
Magnitude (Debye)      :      1.74205

Rotational constants in cm-1:     4.298309     0.803147     0.781985
Rotational constants in MHz : 128860.064654 24077.742359 23443.313010

                             ****ORCA TERMINATED NORMALLY****
TOTAL RUN TIME: 0 days 0 hours 1 minutes 10 seconds 366 msec
