                         Program Version 4.1.2  - RELEASE  -
|  1> #Run DFT-D3 single point of the dimer
|  2> ! wB97X-D3 def2-TZVP TIGHTSCF  CHELPG PAL8
|  3>
|  4> %base "181_charges"
|  5>
|  6> %scf
|  7> MaxIter 1000
|  8> end
|  9> %output
| 10>   Print[ P_Mayer ] 1
| 11>   Print[ P_NatPop ] 1
| 12>   Print[ P_Hirshfeld ] 1
| 13>   Print[ P_Mulliken ] 1
| 14>   Print [ P_Loewdin ] 1
| 15> end
| 16>
| 17> * xyz 0 1
| 18>   C                      8.688494             -3.338904            3.569223
| 19>   O                      9.770710             -3.249560            4.491866
| 20>   H                      10.473229            -3.055484            3.886642
| 21>   H                      7.906458             -3.820589            4.105512
| 22>   H                      8.367484             -2.389446            3.097910
| 23>   H                      8.913409             -4.062638            2.716284
| 24> *
| 25>
| 26>                          ****END OF INPUT****

CARTESIAN COORDINATES (ANGSTROEM)
---------------------------------
  C      8.688494   -3.338904    3.569223
  O      9.770710   -3.249560    4.491866
  H     10.473229   -3.055484    3.886642
  H      7.906458   -3.820589    4.105512
  H      8.367484   -2.389446    3.097910
  H      8.913409   -4.062638    2.716284

 Total Charge           Charge          ....    0
 Multiplicity           Mult            ....    1
 Number of Electrons    NEL             ....   18
 Basis Dimension        Dim             ....   86

ORBITAL ENERGIES
----------------

  NO   OCC          E(Eh)            E(eV)
   0   2.0000     -19.234025      -523.3844
   1   2.0000     -10.316892      -280.7369
   2   2.0000      -1.143018       -31.1031
   3   2.0000      -0.792191       -21.5566
   4   2.0000      -0.611321       -16.6349
   5   2.0000      -0.539885       -14.6910
   6   2.0000      -0.520663       -14.1680
   7   2.0000      -0.445804       -12.1310
   8   2.0000      -0.376938       -10.2570
   9   0.0000       0.115001         3.1293
  10   0.0000       0.154286         4.1983
  11   0.0000       0.196524         5.3477
  12   0.0000       0.204859         5.5745
  13   0.0000       0.227137         6.1807

MULLIKEN ATOMIC CHARGES
-----------------------
   0 C :   -0.182063
   1 O :   -0.451789
   2 H :    0.310026
   3 H :    0.123851
   4 H :    0.102837
   5 H :    0.097137
Sum of atomic charges:   -0.0000000

LOEWDIN ATOMIC CHARGES
----------------------
   0 C :   -0.388976
   1 O :   -0.073691
   2 H :    0.163243
   3 H :    0.101833
   4 H :    0.095937
   5 H :    0.101654

  Mayer bond orders larger than 0.1
B(  0-C ,  1-O ) :   1.0058 B(  0-C ,  3-H ) :   0.9785 B(  0-C ,  4-H ) :   0.9638
B(  0-C ,  5-H ) :   0.9774 B(  1-O ,  2-H ) :   0.9092

Dispersion correction           -0.000234455
FINAL SINGLE POINT ENERGY      -115.731569544050

DIPOLE MOMENT
-------------
                                X             Y             Z
Electronic contribution:      1.29183       0.21438       1.39891
Nuclear contribution   :     -1.27671      -0.14424      -2.10768
                        -----------------------------------------
Total Dipole Moment    :      0.01511       0.07013      -0.70877
                        -----------------------------------------
Magnitude (a.u.)       :      0.71239
Magnitude (Debye)      :      1.81074

Rotational constants in cm-1:     4.200681     0.825956     0.798979
Rotational constants in MHz : 125933.249207 24761.541233 23952.783204

                             ****ORCA TERMINATED NORMALLY****
TOTAL RUN TIME: 0 days 0 hours 0 minutes 44 seconds 776 msec
