                         Program Version 4.1.2  - RELEASE  -
|  1> #Run DFT geometry optimization
|  2> ! wB97X-D3 def2-TZVP TIGHTSCF Grid5 FinalGrid6 Opt CHELPG PAL4
|  3>
|  4> %base "8_geo_opt"
|  5> %geom MaxIter 500
|  6> end
|  7>
|  8> %geom
|  9>   Constraints
| 10>     { A 5 0 4 C }
| 11>   end
| 12> end
| 13>
| 14>
| 15> * xyz 0 1
| 16>   C                    3.011308             -1.180897            0.598492
| 17>   O                    4.394673             -1.128050            0.874308
| 18>   H                    4.772196             -0.379022            0.412493
| 19>   H                    2.806434             -1.318965            -0.469350
| 20>   H                    2.609846             -2.038547            1.137311
| 21>   H                    2.483197             -0.286105            0.947447
| 22> *
| 23>
| 24>                          ****END OF INPUT****
 Total Charge           Charge          ....    0
 Multiplicity           Mult            ....    1
 Number of Electrons    NEL             ....   18
Dispersion correction           -0.000239608
FINAL SINGLE POINT ENERGY      -115.738049159558
Dispersion correction            ... done
                    ***********************HURRAY********************

CARTESIAN COORDINATES (ANGSTROEM)
---------------------------------
  C      3.011443   -1.180942    0.598396
  O      4.394588   -1.128074    0.874315
  H      4.772048   -0.378963    0.412615
  H      2.806286   -1.319016   -0.469295
  H      2.609888   -2.038585    1.137289
  H      2.483400   -0.286005    0.947382

 Multiplicity           Mult            ....    1
 Number of Electrons    NEL             ....   18
 Basis Dimension        Dim             ....   86

ORBITAL ENERGIES
----------------

  NO   OCC          E(Eh)            E(eV)
   0   2.0000     -19.228153      -523.2246
   1   2.0000     -10.315097      -280.6881
   2   2.0000      -1.136887       -30.9363
   3   2.0000      -0.795375       -21.6432
   4   2.0000      -0.611590       -16.6422
   5   2.0000      -0.541866       -14.7449
   6   2.0000      -0.526351       -14.3227
   7   2.0000      -0.433687       -11.8012
   8   2.0000      -0.373681       -10.1684
   9   0.0000       0.116681         3.1751
  10   0.0000       0.156602         4.2614
  11   0.0000       0.202624         5.5137
  12   0.0000       0.205160         5.5827
  13   0.0000       0.226337         6.1590

MULLIKEN ATOMIC CHARGES
-----------------------
   0 C :   -0.150978
   1 O :   -0.477531
   2 H :    0.313076
   3 H :    0.098715
   4 H :    0.118150
   5 H :    0.098568
Sum of atomic charges:   -0.0000000

LOEWDIN ATOMIC CHARGES
----------------------
   0 C :   -0.385448
   1 O :   -0.075874
   2 H :    0.165841
   3 H :    0.093410
   4 H :    0.108676
   5 H :    0.093396

  Mayer bond orders larger than 0.1
B(  0-C ,  1-O ) :   0.9988 B(  0-C ,  3-H ) :   0.9755 B(  0-C ,  4-H ) :   0.9749
B(  0-C ,  5-H ) :   0.9755 B(  1-O ,  2-H ) :   0.9002

Dispersion correction           -0.000239538
FINAL SINGLE POINT ENERGY      -115.738049273930

DIPOLE MOMENT
-------------
                                X             Y             Z
Electronic contribution:      1.75876      -0.02840       0.41748
Nuclear contribution   :     -2.06848       0.47607      -0.81463
                        -----------------------------------------
Total Dipole Moment    :     -0.30971       0.44767      -0.39715
                        -----------------------------------------
Magnitude (a.u.)       :      0.67384
Magnitude (Debye)      :      1.71276

Rotational constants in cm-1:     4.295225     0.833672     0.804969
Rotational constants in MHz : 128767.595990 24992.852276 24132.373535

                             ****ORCA TERMINATED NORMALLY****
TOTAL RUN TIME: 0 days 0 hours 0 minutes 35 seconds 414 msec
