                         Program Version 4.1.2  - RELEASE  -
|  1> #Run DFT-D3 single point of the dimer
|  2> ! wB97X-D3 def2-TZVP TIGHTSCF CHELPG PMODEL PAL8
|  3>
|  4> %base "22-140_DFT_AB"
|  5>
|  6> %scf
|  7> MaxIter 1000
|  8> end
|  9>
| 10> * xyz 0 1
| 11>   C                      0.527698             1.859503             9.663229
| 12>   O                      0.594535             0.604207             10.339565
| 13>   H                      1.417129             0.142972             9.950281
| 14>   H                      0.246686             1.908735             8.587147
| 15>   H                      -0.322910            2.327679             10.124349
| 16>   H                      1.373423             2.534069             9.816187
| 17>   C                      -0.190552            -1.346349            7.638156
| 18>   O                      -0.224249            -1.612135            6.254584
| 19>   H                      -0.894124            -2.259526            6.100386
| 20>   H                      -0.148998            -2.211394            8.212019
| 21>   H                      0.737630             -0.846319            7.968315
| 22>   H                      -1.056056            -0.711829            7.991936
| 23> *
| 24>
| 25> #Run DFT-D3 single point of the molecule with dimer basis set
| 26> $new_job
| 27> %base "22-140_DFT_A"
| 28> ! wB97X-D3 def2-TZVP TIGHTSCF CHELPG PMODEL
| 29>
| 30> %scf
| 31> MaxIter 1000
| 32> end
| 33>
| 34> * xyz 0 1
| 35>   C                      0.527698             1.859503             9.663229
| 36>   O                      0.594535             0.604207             10.339565
| 37>   H                      1.417129             0.142972             9.950281
| 38>   H                      0.246686             1.908735             8.587147
| 39>   H                      -0.322910            2.327679             10.124349
| 40>   H                      1.373423             2.534069             9.816187
| 41>   C                    : -0.190552            -1.346349            7.638156
| 42>   O                    : -0.224249            -1.612135            6.254584
| 43>   H                    : -0.894124            -2.259526            6.100386
| 44>   H                    : -0.148998            -2.211394            8.212019
| 45>   H                    : 0.737630             -0.846319            7.968315
| 46>   H                    : -1.056056            -0.711829            7.991936
| 47> *
| 48>
| 49> #Run DFT-D3 single point of the particle with dimer basis set
| 50> $new_job
| 51> %base "22-140_DFT_B"
| 52> ! wB97X-D3 def2-TZVP TIGHTSCF CHELPG PMODEL
| 53>
| 54> %scf
| 55> MaxIter 1000
| 56> end
| 57>
| 58> * xyz 0 1
| 59>   C                    : 0.527698             1.859503             9.663229
| 60>   O                    : 0.594535             0.604207             10.339565
| 61>   H                    : 1.417129             0.142972             9.950281
| 62>   H                    : 0.246686             1.908735             8.587147
| 63>   H                    : -0.322910            2.327679             10.124349
| 64>   H                    : 1.373423             2.534069             9.816187
| 65>   C                      -0.190552            -1.346349            7.638156
| 66>   O                      -0.224249            -1.612135            6.254584
| 67>   H                      -0.894124            -2.259526            6.100386
| 68>   H                      -0.148998            -2.211394            8.212019
| 69>   H                      0.737630             -0.846319            7.968315
| 70>   H                      -1.056056            -0.711829            7.991936
| 71> *
| 72>
| 73>                          ****END OF INPUT****
 Total Charge           Charge          ....    0
 Multiplicity           Mult            ....    1
 Number of Electrons    NEL             ....   36
Dispersion correction           -0.001918221
FINAL SINGLE POINT ENERGY      -231.462702344951
Dispersion correction           -0.000278381
FINAL SINGLE POINT ENERGY      -115.729422574707

CARTESIAN COORDINATES (ANGSTROEM)
---------------------------------
  C      0.527698    1.859503    9.663229
  O      0.594535    0.604207   10.339565
  H      1.417129    0.142972    9.950281
  H      0.246686    1.908735    8.587147
  H     -0.322910    2.327679   10.124349
  H      1.373423    2.534069    9.816187
  C     -0.190552   -1.346349    7.638156
  O     -0.224249   -1.612135    6.254584
  H     -0.894124   -2.259526    6.100386
  H     -0.148998   -2.211394    8.212019
  H      0.737630   -0.846319    7.968315
  H     -1.056056   -0.711829    7.991936

 Multiplicity           Mult            ....    1
 Number of Electrons    NEL             ....   18
 Basis Dimension        Dim             ....  172

ORBITAL ENERGIES
----------------

  NO   OCC          E(Eh)            E(eV)
   0   2.0000     -19.230731      -523.2948
   1   2.0000     -10.311517      -280.5906
   2   2.0000      -1.141584       -31.0641
   3   2.0000      -0.799872       -21.7656
   4   2.0000      -0.616348       -16.7717
   5   2.0000      -0.543374       -14.7859
   6   2.0000      -0.527412       -14.3516
   7   2.0000      -0.430698       -11.7199
   8   2.0000      -0.376638       -10.2488
   9   0.0000       0.086094         2.3427
  10   0.0000       0.119726         3.2579
  11   0.0000       0.150974         4.1082
  12   0.0000       0.171569         4.6686
  13   0.0000       0.186362         5.0712

MULLIKEN ATOMIC CHARGES
-----------------------
   0 C :   -0.002539
   1 O :    0.000204
   2 H :   -0.000365
   3 H :    0.000910
   4 H :    0.000147
   5 H :   -0.000028
   6 C :   -0.170753
   7 O :   -0.467735
   8 H :    0.313604
   9 H :    0.109801
  10 H :    0.118817
  11 H :    0.097938
Sum of atomic charges:   -0.0000000

LOEWDIN ATOMIC CHARGES
----------------------
   0 C :   -0.004446
   1 O :   -0.001847
   2 H :   -0.004291
   3 H :   -0.001353
   4 H :   -0.000064
   5 H :   -0.000033
   6 C :   -0.387947
   7 O :   -0.062261
   8 H :    0.160598
   9 H :    0.083789
  10 H :    0.115206
  11 H :    0.102649

  Mayer bond orders larger than 0.1
B(  6-C ,  7-O ) :   1.0052 B(  6-C ,  9-H ) :   0.9748 B(  6-C , 10-H ) :   0.9726
B(  6-C , 11-H ) :   0.9744 B(  7-O ,  8-H ) :   0.9018

Dispersion correction           -0.000247178
FINAL SINGLE POINT ENERGY      -115.731957162242

DIPOLE MOMENT
-------------
                                X             Y             Z
Electronic contribution:      0.04083      -0.31924      -1.89309
Nuclear contribution   :     -0.42836      -0.03153       2.35278
                        -----------------------------------------
Total Dipole Moment    :     -0.38753      -0.35078       0.45969
                        -----------------------------------------
Magnitude (a.u.)       :      0.69609
Magnitude (Debye)      :      1.76932

Rotational constants in cm-1:     4.460377     0.823763     0.802247
Rotational constants in MHz : 133718.750044 24695.789042 24050.757990

                             ****ORCA TERMINATED NORMALLY****
TOTAL RUN TIME: 0 days 0 hours 1 minutes 5 seconds 845 msec
