                         Program Version 4.1.2  - RELEASE  -
|  1> #Run DFT-D3 single point of the dimer
|  2> ! wB97X-D3 def2-TZVP TIGHTSCF CHELPG PMODEL PAL8
|  3>
|  4> %base "20-214_DFT_AB"
|  5>
|  6> %scf
|  7> MaxIter 1000
|  8> end
|  9>
| 10> * xyz 0 1
| 11>   C                      5.737814             -6.792202            4.012589
| 12>   O                      4.642197             -7.192453            3.223775
| 13>   H                      3.849765             -6.864474            3.676815
| 14>   H                      6.603623             -7.244640            3.633068
| 15>   H                      5.796332             -5.719068            4.113003
| 16>   H                      5.644942             -7.132266            5.028861
| 17>   C                      3.521563             -8.395177            6.505984
| 18>   O                      2.803893             -7.956454            5.383226
| 19>   H                      2.484946             -7.127804            5.680847
| 20>   H                      2.867925             -8.568424            7.366260
| 21>   H                      3.884699             -9.352271            6.189371
| 22>   H                      4.433381             -7.748269            6.774794
| 23> *
| 24>
| 25> #Run DFT-D3 single point of the molecule with dimer basis set
| 26> $new_job
| 27> %base "20-214_DFT_A"
| 28> ! wB97X-D3 def2-TZVP TIGHTSCF CHELPG PMODEL
| 29>
| 30> %scf
| 31> MaxIter 1000
| 32> end
| 33>
| 34> * xyz 0 1
| 35>   C                      5.737814             -6.792202            4.012589
| 36>   O                      4.642197             -7.192453            3.223775
| 37>   H                      3.849765             -6.864474            3.676815
| 38>   H                      6.603623             -7.244640            3.633068
| 39>   H                      5.796332             -5.719068            4.113003
| 40>   H                      5.644942             -7.132266            5.028861
| 41>   C                    : 3.521563             -8.395177            6.505984
| 42>   O                    : 2.803893             -7.956454            5.383226
| 43>   H                    : 2.484946             -7.127804            5.680847
| 44>   H                    : 2.867925             -8.568424            7.366260
| 45>   H                    : 3.884699             -9.352271            6.189371
| 46>   H                    : 4.433381             -7.748269            6.774794
| 47> *
| 48>
| 49> #Run DFT-D3 single point of the particle with dimer basis set
| 50> $new_job
| 51> %base "20-214_DFT_B"
| 52> ! wB97X-D3 def2-TZVP TIGHTSCF CHELPG PMODEL
| 53>
| 54> %scf
| 55> MaxIter 1000
| 56> end
| 57>
| 58> * xyz 0 1
| 59>   C                    : 5.737814             -6.792202            4.012589
| 60>   O                    : 4.642197             -7.192453            3.223775
| 61>   H                    : 3.849765             -6.864474            3.676815
| 62>   H                    : 6.603623             -7.244640            3.633068
| 63>   H                    : 5.796332             -5.719068            4.113003
| 64>   H                    : 5.644942             -7.132266            5.028861
| 65>   C                      3.521563             -8.395177            6.505984
| 66>   O                      2.803893             -7.956454            5.383226
| 67>   H                      2.484946             -7.127804            5.680847
| 68>   H                      2.867925             -8.568424            7.366260
| 69>   H                      3.884699             -9.352271            6.189371
| 70>   H                      4.433381             -7.748269            6.774794
| 71> *
| 72>
| 73>                          ****END OF INPUT****
 Total Charge           Charge          ....    0
 Multiplicity           Mult            ....    1
 Number of Electrons    NEL             ....   36
Dispersion correction           -0.002205084
FINAL SINGLE POINT ENERGY      -231.467893270590
Dispersion correction           -0.000217905
FINAL SINGLE POINT ENERGY      -115.734622586336

CARTESIAN COORDINATES (ANGSTROEM)
---------------------------------
  C      5.737814   -6.792202    4.012589
  O      4.642197   -7.192453    3.223775
  H      3.849765   -6.864474    3.676815
  H      6.603623   -7.244640    3.633068
  H      5.796332   -5.719068    4.113003
  H      5.644942   -7.132266    5.028861
  C      3.521563   -8.395177    6.505984
  O      2.803893   -7.956454    5.383226
  H      2.484946   -7.127804    5.680847
  H      2.867925   -8.568424    7.366260
  H      3.884699   -9.352271    6.189371
  H      4.433381   -7.748269    6.774794

 Multiplicity           Mult            ....    1
 Number of Electrons    NEL             ....   18
 Basis Dimension        Dim             ....  172

ORBITAL ENERGIES
----------------

  NO   OCC          E(Eh)            E(eV)
   0   2.0000     -19.232424      -523.3409
   1   2.0000     -10.315212      -280.6912
   2   2.0000      -1.151273       -31.3277
   3   2.0000      -0.792630       -21.5685
   4   2.0000      -0.614119       -16.7110
   5   2.0000      -0.545168       -14.8348
   6   2.0000      -0.524127       -14.2622
   7   2.0000      -0.441171       -12.0049
   8   2.0000      -0.377709       -10.2780
   9   0.0000       0.092478         2.5165
  10   0.0000       0.132064         3.5937
  11   0.0000       0.151091         4.1114
  12   0.0000       0.185125         5.0375
  13   0.0000       0.199154         5.4193

MULLIKEN ATOMIC CHARGES
-----------------------
   0 C :   -0.006010
   1 O :    0.005987
   2 H :   -0.013586
   3 H :   -0.000160
   4 H :    0.000279
   5 H :    0.005394
   6 C :   -0.169465
   7 O :   -0.450494
   8 H :    0.309603
   9 H :    0.110401
  10 H :    0.113164
  11 H :    0.094887
Sum of atomic charges:    0.0000000

LOEWDIN ATOMIC CHARGES
----------------------
   0 C :   -0.006439
   1 O :   -0.006328
   2 H :   -0.021383
   3 H :   -0.000082
   4 H :   -0.000076
   5 H :   -0.006109
   6 C :   -0.397428
   7 O :   -0.027582
   8 H :    0.157763
   9 H :    0.095869
  10 H :    0.105330
  11 H :    0.106464

  Mayer bond orders larger than 0.1
B(  6-C ,  7-O ) :   0.9952 B(  6-C ,  9-H ) :   0.9694 B(  6-C , 10-H ) :   0.9836
B(  6-C , 11-H ) :   0.9685 B(  7-O ,  8-H ) :   0.9081

Dispersion correction           -0.000225396
FINAL SINGLE POINT ENERGY      -115.732411402994

DIPOLE MOMENT
-------------
                                X             Y             Z
Electronic contribution:     -0.94782       0.49183      -1.48722
Nuclear contribution   :      0.99903      -0.17626       2.08510
                        -----------------------------------------
Total Dipole Moment    :      0.05122       0.31557       0.59789
                        -----------------------------------------
Magnitude (a.u.)       :      0.67800
Magnitude (Debye)      :      1.72333

Rotational constants in cm-1:     4.176075     0.848283     0.825475
Rotational constants in MHz : 125195.573085 25430.892262 24747.110948

                             ****ORCA TERMINATED NORMALLY****
TOTAL RUN TIME: 0 days 0 hours 1 minutes 7 seconds 94 msec
