                         Program Version 4.1.2  - RELEASE  -
|  1> #Run DFT-D3 single point of the dimer
|  2> ! wB97X-D3 def2-TZVP TIGHTSCF CHELPG PMODEL PAL8
|  3>
|  4> %base "12-19_DFT_AB"
|  5>
|  6> %scf
|  7> MaxIter 1000
|  8> end
|  9>
| 10> * xyz 0 1
| 11>   C                      7.783129             -4.327830            -2.139949
| 12>   O                      8.538829             -3.183352            -2.235793
| 13>   H                      9.186373             -3.113510            -1.593900
| 14>   H                      8.386808             -5.185219            -2.334048
| 15>   H                      7.505781             -4.489280            -1.123958
| 16>   H                      6.890016             -4.297037            -2.756172
| 17>   C                      4.145521             -3.614661            -0.974058
| 18>   O                      5.376072             -3.496439            -0.217152
| 19>   H                      5.726348             -2.660817            -0.375883
| 20>   H                      3.495321             -2.730978            -1.045053
| 21>   H                      4.298799             -3.828668            -2.016768
| 22>   H                      3.537136             -4.415809            -0.560878
| 23> *
| 24>
| 25> #Run DFT-D3 single point of the molecule with dimer basis set
| 26> $new_job
| 27> %base "12-19_DFT_A"
| 28> ! wB97X-D3 def2-TZVP TIGHTSCF CHELPG PMODEL
| 29>
| 30> %scf
| 31> MaxIter 1000
| 32> end
| 33>
| 34> * xyz 0 1
| 35>   C                      7.783129             -4.327830            -2.139949
| 36>   O                      8.538829             -3.183352            -2.235793
| 37>   H                      9.186373             -3.113510            -1.593900
| 38>   H                      8.386808             -5.185219            -2.334048
| 39>   H                      7.505781             -4.489280            -1.123958
| 40>   H                      6.890016             -4.297037            -2.756172
| 41>   C                    : 4.145521             -3.614661            -0.974058
| 42>   O                    : 5.376072             -3.496439            -0.217152
| 43>   H                    : 5.726348             -2.660817            -0.375883
| 44>   H                    : 3.495321             -2.730978            -1.045053
| 45>   H                    : 4.298799             -3.828668            -2.016768
| 46>   H                    : 3.537136             -4.415809            -0.560878
| 47> *
| 48>
| 49> #Run DFT-D3 single point of the particle with dimer basis set
| 50> $new_job
| 51> %base "12-19_DFT_B"
| 52> ! wB97X-D3 def2-TZVP TIGHTSCF CHELPG PMODEL
| 53>
| 54> %scf
| 55> MaxIter 1000
| 56> end
| 57>
| 58> * xyz 0 1
| 59>   C                    : 7.783129             -4.327830            -2.139949
| 60>   O                    : 8.538829             -3.183352            -2.235793
| 61>   H                    : 9.186373             -3.113510            -1.593900
| 62>   H                    : 8.386808             -5.185219            -2.334048
| 63>   H                    : 7.505781             -4.489280            -1.123958
| 64>   H                    : 6.890016             -4.297037            -2.756172
| 65>   C                      4.145521             -3.614661            -0.974058
| 66>   O                      5.376072             -3.496439            -0.217152
| 67>   H                      5.726348             -2.660817            -0.375883
| 68>   H                      3.495321             -2.730978            -1.045053
| 69>   H                      4.298799             -3.828668            -2.016768
| 70>   H                      3.537136             -4.415809            -0.560878
| 71> *
| 72>
| 73>                          ****END OF INPUT****
 Total Charge           Charge          ....    0
 Multiplicity           Mult            ....    1
 Number of Electrons    NEL             ....   36
Dispersion correction           -0.001974237
FINAL SINGLE POINT ENERGY      -231.463484552395
Dispersion correction           -0.000211017
FINAL SINGLE POINT ENERGY      -115.729819165630

CARTESIAN COORDINATES (ANGSTROEM)
---------------------------------
  C      7.783129   -4.327830   -2.139949
  O      8.538829   -3.183352   -2.235793
  H      9.186373   -3.113510   -1.593900
  H      8.386808   -5.185219   -2.334048
  H      7.505781   -4.489280   -1.123958
  H      6.890016   -4.297037   -2.756172
  C      4.145521   -3.614661   -0.974058
  O      5.376072   -3.496439   -0.217152
  H      5.726348   -2.660817   -0.375883
  H      3.495321   -2.730978   -1.045053
  H      4.298799   -3.828668   -2.016768
  H      3.537136   -4.415809   -0.560878

 Multiplicity           Mult            ....    1
 Number of Electrons    NEL             ....   18
 Basis Dimension        Dim             ....  172

ORBITAL ENERGIES
----------------

  NO   OCC          E(Eh)            E(eV)
   0   2.0000     -19.232133      -523.3330
   1   2.0000     -10.315030      -280.6862
   2   2.0000      -1.136804       -30.9340
   3   2.0000      -0.805215       -21.9110
   4   2.0000      -0.616922       -16.7873
   5   2.0000      -0.532838       -14.4993
   6   2.0000      -0.522283       -14.2120
   7   2.0000      -0.445097       -12.1117
   8   2.0000      -0.378449       -10.2981
   9   0.0000       0.090231         2.4553
  10   0.0000       0.132680         3.6104
  11   0.0000       0.147777         4.0212
  12   0.0000       0.171622         4.6701
  13   0.0000       0.194133         5.2826

MULLIKEN ATOMIC CHARGES
-----------------------
   0 C :   -0.013836
   1 O :    0.001206
   2 H :    0.000164
   3 H :   -0.001087
   4 H :   -0.002044
   5 H :    0.001975
   6 C :   -0.181133
   7 O :   -0.457941
   8 H :    0.308208
   9 H :    0.109832
  10 H :    0.107907
  11 H :    0.126749
Sum of atomic charges:    0.0000000

LOEWDIN ATOMIC CHARGES
----------------------
   0 C :   -0.014364
   1 O :   -0.000219
   2 H :   -0.000076
   3 H :   -0.000227
   4 H :   -0.011682
   5 H :   -0.001992
   6 C :   -0.359056
   7 O :   -0.052860
   8 H :    0.141062
   9 H :    0.098394
  10 H :    0.092269
  11 H :    0.108751

  Mayer bond orders larger than 0.1
B(  6-C ,  7-O ) :   0.9989 B(  6-C ,  9-H ) :   0.9724 B(  6-C , 10-H ) :   0.9704
B(  6-C , 11-H ) :   0.9786 B(  7-O ,  8-H ) :   0.9086

Dispersion correction           -0.000272402
FINAL SINGLE POINT ENERGY      -115.732053236771

DIPOLE MOMENT
-------------
                                X             Y             Z
Electronic contribution:      1.60213       0.04890       1.08224
Nuclear contribution   :     -1.90690       0.45342      -1.49656
                        -----------------------------------------
Total Dipole Moment    :     -0.30477       0.50232      -0.41432
                        -----------------------------------------
Magnitude (a.u.)       :      0.71894
Magnitude (Debye)      :      1.82739

Rotational constants in cm-1:     4.557011     0.791909     0.761201
Rotational constants in MHz : 136615.753565 23740.840112 22820.229106

                             ****ORCA TERMINATED NORMALLY****
TOTAL RUN TIME: 0 days 0 hours 1 minutes 2 seconds 826 msec
