                         Program Version 4.1.2  - RELEASE  -
|  1> #Run DFT-D3 single point of the dimer
|  2> ! wB97X-D3 def2-TZVP TIGHTSCF CHELPG PMODEL PAL8
|  3>
|  4> %base "20-31_DFT_AB"
|  5>
|  6> %scf
|  7> MaxIter 1000
|  8> end
|  9>
| 10> * xyz 0 1
| 11>   C                      -1.641794            5.307331             1.637861
| 12>   O                      -2.575965            4.229584             1.491744
| 13>   H                      -2.767324            3.875175             2.374490
| 14>   H                      -1.946451            5.984514             2.464272
| 15>   H                      -0.555480            5.066071             1.793109
| 16>   H                      -1.550788            5.846078             0.708489
| 17>   C                      -6.714063            5.350536             4.090886
| 18>   O                      -7.999713            4.915713             3.661961
| 19>   H                      -7.853763            4.051714             3.187885
| 20>   H                      -5.999717            4.604636             4.133295
| 21>   H                      -6.266902            6.020050             3.367942
| 22>   H                      -6.759302            5.873254             5.050062
| 23> *
| 24>
| 25> #Run DFT-D3 single point of the molecule with dimer basis set
| 26> $new_job
| 27> %base "20-31_DFT_A"
| 28> ! wB97X-D3 def2-TZVP TIGHTSCF CHELPG PMODEL
| 29>
| 30> %scf
| 31> MaxIter 1000
| 32> end
| 33>
| 34> * xyz 0 1
| 35>   C                      -1.641794            5.307331             1.637861
| 36>   O                      -2.575965            4.229584             1.491744
| 37>   H                      -2.767324            3.875175             2.374490
| 38>   H                      -1.946451            5.984514             2.464272
| 39>   H                      -0.555480            5.066071             1.793109
| 40>   H                      -1.550788            5.846078             0.708489
| 41>   C                    : -6.714063            5.350536             4.090886
| 42>   O                    : -7.999713            4.915713             3.661961
| 43>   H                    : -7.853763            4.051714             3.187885
| 44>   H                    : -5.999717            4.604636             4.133295
| 45>   H                    : -6.266902            6.020050             3.367942
| 46>   H                    : -6.759302            5.873254             5.050062
| 47> *
| 48>
| 49> #Run DFT-D3 single point of the particle with dimer basis set
| 50> $new_job
| 51> %base "20-31_DFT_B"
| 52> ! wB97X-D3 def2-TZVP TIGHTSCF CHELPG PMODEL
| 53>
| 54> %scf
| 55> MaxIter 1000
| 56> end
| 57>
| 58> * xyz 0 1
| 59>   C                    : -1.641794            5.307331             1.637861
| 60>   O                    : -2.575965            4.229584             1.491744
| 61>   H                    : -2.767324            3.875175             2.374490
| 62>   H                    : -1.946451            5.984514             2.464272
| 63>   H                    : -0.555480            5.066071             1.793109
| 64>   H                    : -1.550788            5.846078             0.708489
| 65>   C                      -6.714063            5.350536             4.090886
| 66>   O                      -7.999713            4.915713             3.661961
| 67>   H                      -7.853763            4.051714             3.187885
| 68>   H                      -5.999717            4.604636             4.133295
| 69>   H                      -6.266902            6.020050             3.367942
| 70>   H                      -6.759302            5.873254             5.050062
| 71> *
| 72>
| 73>                          ****END OF INPUT****
 Total Charge           Charge          ....    0
 Multiplicity           Mult            ....    1
 Number of Electrons    NEL             ....   36
Dispersion correction           -0.000777805
FINAL SINGLE POINT ENERGY      -231.462761142309
Dispersion correction           -0.000275766
FINAL SINGLE POINT ENERGY      -115.732394472889

CARTESIAN COORDINATES (ANGSTROEM)
---------------------------------
  C     -1.641794    5.307331    1.637861
  O     -2.575965    4.229584    1.491744
  H     -2.767324    3.875175    2.374490
  H     -1.946451    5.984514    2.464272
  H     -0.555480    5.066071    1.793109
  H     -1.550788    5.846078    0.708489
  C     -6.714063    5.350536    4.090886
  O     -7.999713    4.915713    3.661961
  H     -7.853763    4.051714    3.187885
  H     -5.999717    4.604636    4.133295
  H     -6.266902    6.020050    3.367942
  H     -6.759302    5.873254    5.050062

 Multiplicity           Mult            ....    1
 Number of Electrons    NEL             ....   18
 Basis Dimension        Dim             ....  172

ORBITAL ENERGIES
----------------

  NO   OCC          E(Eh)            E(eV)
   0   2.0000     -19.234275      -523.3912
   1   2.0000     -10.304636      -280.4034
   2   2.0000      -1.127720       -30.6868
   3   2.0000      -0.799681       -21.7604
   4   2.0000      -0.612951       -16.6792
   5   2.0000      -0.535248       -14.5648
   6   2.0000      -0.525411       -14.2972
   7   2.0000      -0.441841       -12.0231
   8   2.0000      -0.371508       -10.1092
   9   0.0000       0.079813         2.1718
  10   0.0000       0.110400         3.0041
  11   0.0000       0.142176         3.8688
  12   0.0000       0.168026         4.5722
  13   0.0000       0.190961         5.1963

MULLIKEN ATOMIC CHARGES
-----------------------
   0 C :    0.000010
   1 O :    0.000010
   2 H :   -0.000096
   3 H :   -0.000044
   4 H :   -0.000003
   5 H :    0.000001
   6 C :   -0.173123
   7 O :   -0.472991
   8 H :    0.317244
   9 H :    0.109230
  10 H :    0.102240
  11 H :    0.117521
Sum of atomic charges:    0.0000000

LOEWDIN ATOMIC CHARGES
----------------------
   0 C :   -0.000030
   1 O :   -0.000011
   2 H :   -0.000117
   3 H :   -0.000024
   4 H :   -0.000001
   5 H :   -0.000000
   6 C :   -0.377880
   7 O :   -0.097560
   8 H :    0.191146
   9 H :    0.082268
  10 H :    0.095065
  11 H :    0.107145

  Mayer bond orders larger than 0.1
B(  6-C ,  7-O ) :   1.0097 B(  6-C ,  9-H ) :   0.9818 B(  6-C , 10-H ) :   0.9768
B(  6-C , 11-H ) :   0.9753 B(  7-O ,  8-H ) :   0.8960

Dispersion correction           -0.000243042
FINAL SINGLE POINT ENERGY      -115.730212812785

DIPOLE MOMENT
-------------
                                X             Y             Z
Electronic contribution:     -1.75295      -0.50542      -0.41422
Nuclear contribution   :      2.38029       0.11279       0.28877
                        -----------------------------------------
Total Dipole Moment    :      0.62734      -0.39262      -0.12544
                        -----------------------------------------
Magnitude (a.u.)       :      0.75063
Magnitude (Debye)      :      1.90796

Rotational constants in cm-1:     4.440379     0.824228     0.788511
Rotational constants in MHz : 133119.201733 24709.748475 23638.950310

                             ****ORCA TERMINATED NORMALLY****
TOTAL RUN TIME: 0 days 0 hours 1 minutes 6 seconds 407 msec
