                         Program Version 4.1.2  - RELEASE  -
|  1> #Run DFT-D3 single point of the dimer
|  2> ! wB97X-D3 def2-TZVP TIGHTSCF CHELPG PMODEL PAL8
|  3>
|  4> %base "3-185_DFT_AB"
|  5>
|  6> %scf
|  7> MaxIter 1000
|  8> end
|  9>
| 10> * xyz 0 1
| 11>   C                      -9.453415            2.272637             -1.854125
| 12>   O                      -10.232456           1.206431             -1.363501
| 13>   H                      -11.006896           1.523808             -0.899338
| 14>   H                      -10.083920           3.094927             -2.171707
| 15>   H                      -8.932081            2.767258             -0.972822
| 16>   H                      -8.653163            1.996415             -2.563846
| 17>   C                      -9.373559            0.297392             -6.536490
| 18>   O                      -9.456627            1.047933             -5.265026
| 19>   H                      -9.619971            0.582751             -4.399038
| 20>   H                      -8.905925            -0.694538            -6.512490
| 21>   H                      -10.378640           0.221856             -6.997461
| 22>   H                      -8.830165            0.846990             -7.252988
| 23> *
| 24>
| 25> #Run DFT-D3 single point of the molecule with dimer basis set
| 26> $new_job
| 27> %base "3-185_DFT_A"
| 28> ! wB97X-D3 def2-TZVP TIGHTSCF CHELPG PMODEL
| 29>
| 30> %scf
| 31> MaxIter 1000
| 32> end
| 33>
| 34> * xyz 0 1
| 35>   C                      -9.453415            2.272637             -1.854125
| 36>   O                      -10.232456           1.206431             -1.363501
| 37>   H                      -11.006896           1.523808             -0.899338
| 38>   H                      -10.083920           3.094927             -2.171707
| 39>   H                      -8.932081            2.767258             -0.972822
| 40>   H                      -8.653163            1.996415             -2.563846
| 41>   C                    : -9.373559            0.297392             -6.536490
| 42>   O                    : -9.456627            1.047933             -5.265026
| 43>   H                    : -9.619971            0.582751             -4.399038
| 44>   H                    : -8.905925            -0.694538            -6.512490
| 45>   H                    : -10.378640           0.221856             -6.997461
| 46>   H                    : -8.830165            0.846990             -7.252988
| 47> *
| 48>
| 49> #Run DFT-D3 single point of the particle with dimer basis set
| 50> $new_job
| 51> %base "3-185_DFT_B"
| 52> ! wB97X-D3 def2-TZVP TIGHTSCF CHELPG PMODEL
| 53>
| 54> %scf
| 55> MaxIter 1000
| 56> end
| 57>
| 58> * xyz 0 1
| 59>   C                    : -9.453415            2.272637             -1.854125
| 60>   O                    : -10.232456           1.206431             -1.363501
| 61>   H                    : -11.006896           1.523808             -0.899338
| 62>   H                    : -10.083920           3.094927             -2.171707
| 63>   H                    : -8.932081            2.767258             -0.972822
| 64>   H                    : -8.653163            1.996415             -2.563846
| 65>   C                      -9.373559            0.297392             -6.536490
| 66>   O                      -9.456627            1.047933             -5.265026
| 67>   H                      -9.619971            0.582751             -4.399038
| 68>   H                      -8.905925            -0.694538            -6.512490
| 69>   H                      -10.378640           0.221856             -6.997461
| 70>   H                      -8.830165            0.846990             -7.252988
| 71> *
| 72>
| 73>                          ****END OF INPUT****
 Total Charge           Charge          ....    0
 Multiplicity           Mult            ....    1
 Number of Electrons    NEL             ....   36
Dispersion correction           -0.001422663
FINAL SINGLE POINT ENERGY      -231.457880850557
Dispersion correction           -0.000242712
FINAL SINGLE POINT ENERGY      -115.730268589879

CARTESIAN COORDINATES (ANGSTROEM)
---------------------------------
  C     -9.453415    2.272637   -1.854125
  O    -10.232456    1.206431   -1.363501
  H    -11.006896    1.523808   -0.899338
  H    -10.083920    3.094927   -2.171707
  H     -8.932081    2.767258   -0.972822
  H     -8.653163    1.996415   -2.563846
  C     -9.373559    0.297392   -6.536490
  O     -9.456627    1.047933   -5.265026
  H     -9.619971    0.582751   -4.399038
  H     -8.905925   -0.694538   -6.512490
  H    -10.378640    0.221856   -6.997461
  H     -8.830165    0.846990   -7.252988

 Multiplicity           Mult            ....    1
 Number of Electrons    NEL             ....   18
 Basis Dimension        Dim             ....  172

ORBITAL ENERGIES
----------------

  NO   OCC          E(Eh)            E(eV)
   0   2.0000     -19.229543      -523.2625
   1   2.0000     -10.318724      -280.7868
   2   2.0000      -1.103017       -30.0146
   3   2.0000      -0.804514       -21.8920
   4   2.0000      -0.599519       -16.3137
   5   2.0000      -0.529271       -14.4022
   6   2.0000      -0.524969       -14.2851
   7   2.0000      -0.421988       -11.4829
   8   2.0000      -0.372876       -10.1465
   9   0.0000       0.080920         2.2020
  10   0.0000       0.126130         3.4322
  11   0.0000       0.143174         3.8960
  12   0.0000       0.168726         4.5913
  13   0.0000       0.195214         5.3120

MULLIKEN ATOMIC CHARGES
-----------------------
   0 C :    0.002131
   1 O :   -0.000192
   2 H :   -0.000021
   3 H :   -0.000039
   4 H :   -0.000144
   5 H :   -0.006942
   6 C :   -0.157460
   7 O :   -0.514993
   8 H :    0.326490
   9 H :    0.113302
  10 H :    0.109475
  11 H :    0.128391
Sum of atomic charges:    0.0000000

LOEWDIN ATOMIC CHARGES
----------------------
   0 C :   -0.003813
   1 O :   -0.000305
   2 H :   -0.000019
   3 H :   -0.000200
   4 H :   -0.000022
   5 H :   -0.003827
   6 C :   -0.336178
   7 O :   -0.140848
   8 H :    0.184885
   9 H :    0.099011
  10 H :    0.102326
  11 H :    0.098991

  Mayer bond orders larger than 0.1
B(  6-C ,  7-O ) :   0.9865 B(  6-C ,  9-H ) :   0.9693 B(  6-C , 10-H ) :   0.9778
B(  6-C , 11-H ) :   0.9730 B(  7-O ,  8-H ) :   0.8811

Dispersion correction           -0.000320702
FINAL SINGLE POINT ENERGY      -115.724731595546

DIPOLE MOMENT
-------------
                                X             Y             Z
Electronic contribution:     -0.01207       0.94341       1.52411
Nuclear contribution   :     -0.04206      -1.59137      -1.56650
                        -----------------------------------------
Total Dipole Moment    :     -0.05413      -0.64795      -0.04238
                        -----------------------------------------
Magnitude (a.u.)       :      0.65159
Magnitude (Debye)      :      1.65621

Rotational constants in cm-1:     4.581581     0.746871     0.728291
Rotational constants in MHz : 137352.341187 22390.624414 21833.600687

                             ****ORCA TERMINATED NORMALLY****
TOTAL RUN TIME: 0 days 0 hours 6 minutes 3 seconds 556 msec
