                         Program Version 4.1.2  - RELEASE  -
|  1> #Run DFT-D3 single point of the dimer
|  2> ! wB97X-D3 def2-TZVP TIGHTSCF CHELPG PMODEL PAL8
|  3>
|  4> %base "5-95_DFT_AB"
|  5>
|  6> %scf
|  7> MaxIter 1000
|  8> end
|  9>
| 10> * xyz 0 1
| 11>   C                      3.523408             -5.923778            2.070169
| 12>   O                      3.834441             -4.576411            1.836301
| 13>   H                      4.763971             -4.562166            1.509061
| 14>   H                      2.729272             -5.991882            2.856450
| 15>   H                      3.330591             -6.484672            1.252621
| 16>   H                      4.446997             -6.457884            2.510366
| 17>   C                      -0.669043            -6.389709            2.434453
| 18>   O                      -1.049529            -7.737653            2.738207
| 19>   H                      -0.406961            -7.906495            3.371871
| 20>   H                      -1.323085            -5.848376            1.821397
| 21>   H                      -0.536735            -5.800805            3.330906
| 22>   H                      0.321000             -6.379876            1.922245
| 23> *
| 24>
| 25> #Run DFT-D3 single point of the molecule with dimer basis set
| 26> $new_job
| 27> %base "5-95_DFT_A"
| 28> ! wB97X-D3 def2-TZVP TIGHTSCF CHELPG PMODEL
| 29>
| 30> %scf
| 31> MaxIter 1000
| 32> end
| 33>
| 34> * xyz 0 1
| 35>   C                      3.523408             -5.923778            2.070169
| 36>   O                      3.834441             -4.576411            1.836301
| 37>   H                      4.763971             -4.562166            1.509061
| 38>   H                      2.729272             -5.991882            2.856450
| 39>   H                      3.330591             -6.484672            1.252621
| 40>   H                      4.446997             -6.457884            2.510366
| 41>   C                    : -0.669043            -6.389709            2.434453
| 42>   O                    : -1.049529            -7.737653            2.738207
| 43>   H                    : -0.406961            -7.906495            3.371871
| 44>   H                    : -1.323085            -5.848376            1.821397
| 45>   H                    : -0.536735            -5.800805            3.330906
| 46>   H                    : 0.321000             -6.379876            1.922245
| 47> *
| 48>
| 49> #Run DFT-D3 single point of the particle with dimer basis set
| 50> $new_job
| 51> %base "5-95_DFT_B"
| 52> ! wB97X-D3 def2-TZVP TIGHTSCF CHELPG PMODEL
| 53>
| 54> %scf
| 55> MaxIter 1000
| 56> end
| 57>
| 58> * xyz 0 1
| 59>   C                    : 3.523408             -5.923778            2.070169
| 60>   O                    : 3.834441             -4.576411            1.836301
| 61>   H                    : 4.763971             -4.562166            1.509061
| 62>   H                    : 2.729272             -5.991882            2.856450
| 63>   H                    : 3.330591             -6.484672            1.252621
| 64>   H                    : 4.446997             -6.457884            2.510366
| 65>   C                      -0.669043            -6.389709            2.434453
| 66>   O                      -1.049529            -7.737653            2.738207
| 67>   H                      -0.406961            -7.906495            3.371871
| 68>   H                      -1.323085            -5.848376            1.821397
| 69>   H                      -0.536735            -5.800805            3.330906
| 70>   H                      0.321000             -6.379876            1.922245
| 71> *
| 72>
| 73>                          ****END OF INPUT****
 Total Charge           Charge          ....    0
 Multiplicity           Mult            ....    1
 Number of Electrons    NEL             ....   36
Dispersion correction           -0.001231381
FINAL SINGLE POINT ENERGY      -231.455544394828
Dispersion correction           -0.000230739
FINAL SINGLE POINT ENERGY      -115.726355212224

CARTESIAN COORDINATES (ANGSTROEM)
---------------------------------
  C      3.523408   -5.923778    2.070169
  O      3.834441   -4.576411    1.836301
  H      4.763971   -4.562166    1.509061
  H      2.729272   -5.991882    2.856450
  H      3.330591   -6.484672    1.252621
  H      4.446997   -6.457884    2.510366
  C     -0.669043   -6.389709    2.434453
  O     -1.049529   -7.737653    2.738207
  H     -0.406961   -7.906495    3.371871
  H     -1.323085   -5.848376    1.821397
  H     -0.536735   -5.800805    3.330906
  H      0.321000   -6.379876    1.922245

 Multiplicity           Mult            ....    1
 Number of Electrons    NEL             ....   18
 Basis Dimension        Dim             ....  172

ORBITAL ENERGIES
----------------

  NO   OCC          E(Eh)            E(eV)
   0   2.0000     -19.230400      -523.2858
   1   2.0000     -10.311623      -280.5935
   2   2.0000      -1.147562       -31.2268
   3   2.0000      -0.801064       -21.7980
   4   2.0000      -0.611444       -16.6382
   5   2.0000      -0.538846       -14.6627
   6   2.0000      -0.534499       -14.5445
   7   2.0000      -0.449620       -12.2348
   8   2.0000      -0.375662       -10.2223
   9   0.0000       0.080033         2.1778
  10   0.0000       0.118413         3.2222
  11   0.0000       0.153102         4.1661
  12   0.0000       0.171002         4.6532
  13   0.0000       0.181057         4.9268

MULLIKEN ATOMIC CHARGES
-----------------------
   0 C :   -0.000533
   1 O :    0.000155
   2 H :    0.000013
   3 H :   -0.000326
   4 H :   -0.000114
   5 H :   -0.000084
   6 C :   -0.190576
   7 O :   -0.449867
   8 H :    0.306463
   9 H :    0.124749
  10 H :    0.108425
  11 H :    0.101695
Sum of atomic charges:    0.0000000

LOEWDIN ATOMIC CHARGES
----------------------
   0 C :   -0.003781
   1 O :   -0.000005
   2 H :   -0.000004
   3 H :   -0.002212
   4 H :   -0.000543
   5 H :   -0.000036
   6 C :   -0.368342
   7 O :   -0.064603
   8 H :    0.145464
   9 H :    0.096073
  10 H :    0.095030
  11 H :    0.102959

  Mayer bond orders larger than 0.1
B(  6-C ,  7-O ) :   0.9949 B(  6-C ,  9-H ) :   0.9723 B(  6-C , 10-H ) :   0.9805
B(  6-C , 11-H ) :   0.9800 B(  7-O ,  8-H ) :   0.9146

Dispersion correction           -0.000217001
FINAL SINGLE POINT ENERGY      -115.728506951502

DIPOLE MOMENT
-------------
                                X             Y             Z
Electronic contribution:     -0.77578      -1.76349       0.26334
Nuclear contribution   :      1.30880       2.20699       0.01390
                        -----------------------------------------
Total Dipole Moment    :      0.53301       0.44350       0.27724
                        -----------------------------------------
Magnitude (a.u.)       :      0.74676
Magnitude (Debye)      :      1.89812

Rotational constants in cm-1:     4.456925     0.820623     0.794051
Rotational constants in MHz : 133615.253151 24601.672534 23805.037681

                             ****ORCA TERMINATED NORMALLY****
TOTAL RUN TIME: 0 days 0 hours 0 minutes 41 seconds 118 msec
