                         Program Version 4.1.2  - RELEASE  -
|  1> #Run DFT geometry optimization
|  2> ! wB97X-D3 def2-TZVP TIGHTSCF Grid5 FinalGrid6 Opt CHELPG PAL4
|  3>
|  4> %base "6_geo_opt"
|  5> %geom MaxIter 500
|  6> end
|  7>
|  8> %geom
|  9>   Constraints
| 10>     { B 0 1 C }
| 11>   end
| 12> end
| 13>
| 14>
| 15> * xyz 0 1
| 16>   C                    3.011406             -1.180893            0.598511
| 17>   O                    4.394575             -1.128054            0.874288
| 18>   H                    4.772098             -0.379026            0.412474
| 19>   H                    2.806532             -1.318961            -0.469330
| 20>   H                    2.611730             -2.040261            1.135918
| 21>   H                    2.484855             -0.284487            0.945678
| 22> *
| 23>
| 24>                          ****END OF INPUT****
 Total Charge           Charge          ....    0
 Multiplicity           Mult            ....    1
 Number of Electrons    NEL             ....   18
Dispersion correction           -0.000239170
FINAL SINGLE POINT ENERGY      -115.738051332033
Dispersion correction            ... done
                    ***********************HURRAY********************

CARTESIAN COORDINATES (ANGSTROEM)
---------------------------------
  C      3.011457   -1.180926    0.598543
  O      4.394635   -1.128015    0.874259
  H      4.772156   -0.378984    0.412475
  H      2.806499   -1.318979   -0.469298
  H      2.611607   -2.040251    1.135888
  H      2.484842   -0.284526    0.945671

 Multiplicity           Mult            ....    1
 Number of Electrons    NEL             ....   18
 Basis Dimension        Dim             ....   86

ORBITAL ENERGIES
----------------

  NO   OCC          E(Eh)            E(eV)
   0   2.0000     -19.228083      -523.2227
   1   2.0000     -10.315097      -280.6881
   2   2.0000      -1.136863       -30.9356
   3   2.0000      -0.795339       -21.6423
   4   2.0000      -0.611631       -16.6433
   5   2.0000      -0.541784       -14.7427
   6   2.0000      -0.526360       -14.3230
   7   2.0000      -0.433775       -11.8036
   8   2.0000      -0.373597       -10.1661
   9   0.0000       0.116644         3.1741
  10   0.0000       0.156685         4.2636
  11   0.0000       0.202584         5.5126
  12   0.0000       0.205121         5.5816
  13   0.0000       0.226389         6.1604

MULLIKEN ATOMIC CHARGES
-----------------------
   0 C :   -0.150815
   1 O :   -0.477610
   2 H :    0.313024
   3 H :    0.098595
   4 H :    0.118208
   5 H :    0.098598
Sum of atomic charges:   -0.0000000

LOEWDIN ATOMIC CHARGES
----------------------
   0 C :   -0.385317
   1 O :   -0.075949
   2 H :    0.165801
   3 H :    0.093390
   4 H :    0.108687
   5 H :    0.093389

  Mayer bond orders larger than 0.1
B(  0-C ,  1-O ) :   0.9987 B(  0-C ,  3-H ) :   0.9755 B(  0-C ,  4-H ) :   0.9749
B(  0-C ,  5-H ) :   0.9755 B(  1-O ,  2-H ) :   0.9002

Dispersion correction           -0.000239208
FINAL SINGLE POINT ENERGY      -115.738051356938

DIPOLE MOMENT
-------------
                                X             Y             Z
Electronic contribution:      1.75619      -0.02822       0.41983
Nuclear contribution   :     -2.06573       0.47580      -0.81740
                        -----------------------------------------
Total Dipole Moment    :     -0.30954       0.44758      -0.39757
                        -----------------------------------------
Magnitude (a.u.)       :      0.67395
Magnitude (Debye)      :      1.71305

Rotational constants in cm-1:     4.293095     0.833966     0.805067
Rotational constants in MHz : 128703.764730 25001.665594 24135.311954

                             ****ORCA TERMINATED NORMALLY****
TOTAL RUN TIME: 0 days 0 hours 0 minutes 37 seconds 317 msec
