                         Program Version 4.1.2  - RELEASE  -
|  1> #Run DFT-D3 single point of the dimer
|  2> ! wB97X-D3 def2-TZVP TIGHTSCF CHELPG PMODEL PAL8
|  3>
|  4> %base "5-76_DFT_AB"
|  5>
|  6> %scf
|  7> MaxIter 1000
|  8> end
|  9>
| 10> * xyz 0 1
| 11>   C                      -1.179900            -8.638037            -6.948018
| 12>   O                      -1.535437            -7.599694            -7.826611
| 13>   H                      -1.999492            -7.996814            -8.546439
| 14>   H                      -1.140443            -8.346784            -5.893805
| 15>   H                      -1.993029            -9.398908            -7.027883
| 16>   H                      -0.248926            -9.165004            -7.282007
| 17>   C                      -0.177212            -3.464075            -5.008626
| 18>   O                      0.599243             -4.170282            -5.964657
| 19>   H                      0.221244             -3.985069            -6.835843
| 20>   H                      -0.052295            -2.377234            -5.075351
| 21>   H                      -1.279764            -3.683136            -5.182851
| 22>   H                      0.041622             -3.838165            -4.030560
| 23> *
| 24>
| 25> #Run DFT-D3 single point of the molecule with dimer basis set
| 26> $new_job
| 27> %base "5-76_DFT_A"
| 28> ! wB97X-D3 def2-TZVP TIGHTSCF CHELPG PMODEL
| 29>
| 30> %scf
| 31> MaxIter 1000
| 32> end
| 33>
| 34> * xyz 0 1
| 35>   C                      -1.179900            -8.638037            -6.948018
| 36>   O                      -1.535437            -7.599694            -7.826611
| 37>   H                      -1.999492            -7.996814            -8.546439
| 38>   H                      -1.140443            -8.346784            -5.893805
| 39>   H                      -1.993029            -9.398908            -7.027883
| 40>   H                      -0.248926            -9.165004            -7.282007
| 41>   C                    : -0.177212            -3.464075            -5.008626
| 42>   O                    : 0.599243             -4.170282            -5.964657
| 43>   H                    : 0.221244             -3.985069            -6.835843
| 44>   H                    : -0.052295            -2.377234            -5.075351
| 45>   H                    : -1.279764            -3.683136            -5.182851
| 46>   H                    : 0.041622             -3.838165            -4.030560
| 47> *
| 48>
| 49> #Run DFT-D3 single point of the particle with dimer basis set
| 50> $new_job
| 51> %base "5-76_DFT_B"
| 52> ! wB97X-D3 def2-TZVP TIGHTSCF CHELPG PMODEL
| 53>
| 54> %scf
| 55> MaxIter 1000
| 56> end
| 57>
| 58> * xyz 0 1
| 59>   C                    : -1.179900            -8.638037            -6.948018
| 60>   O                    : -1.535437            -7.599694            -7.826611
| 61>   H                    : -1.999492            -7.996814            -8.546439
| 62>   H                    : -1.140443            -8.346784            -5.893805
| 63>   H                    : -1.993029            -9.398908            -7.027883
| 64>   H                    : -0.248926            -9.165004            -7.282007
| 65>   C                      -0.177212            -3.464075            -5.008626
| 66>   O                      0.599243             -4.170282            -5.964657
| 67>   H                      0.221244             -3.985069            -6.835843
| 68>   H                      -0.052295            -2.377234            -5.075351
| 69>   H                      -1.279764            -3.683136            -5.182851
| 70>   H                      0.041622             -3.838165            -4.030560
| 71> *
| 72>
| 73>                          ****END OF INPUT****
 Total Charge           Charge          ....    0
 Multiplicity           Mult            ....    1
 Number of Electrons    NEL             ....   36
Dispersion correction           -0.000749419
FINAL SINGLE POINT ENERGY      -231.468741748338
Dispersion correction           -0.000232871
FINAL SINGLE POINT ENERGY      -115.732674744462

CARTESIAN COORDINATES (ANGSTROEM)
---------------------------------
  C     -1.179900   -8.638037   -6.948018
  O     -1.535437   -7.599694   -7.826611
  H     -1.999492   -7.996814   -8.546439
  H     -1.140443   -8.346784   -5.893805
  H     -1.993029   -9.398908   -7.027883
  H     -0.248926   -9.165004   -7.282007
  C     -0.177212   -3.464075   -5.008626
  O      0.599243   -4.170282   -5.964657
  H      0.221244   -3.985069   -6.835843
  H     -0.052295   -2.377234   -5.075351
  H     -1.279764   -3.683136   -5.182851
  H      0.041622   -3.838165   -4.030560

 Multiplicity           Mult            ....    1
 Number of Electrons    NEL             ....   18
 Basis Dimension        Dim             ....  172

ORBITAL ENERGIES
----------------

  NO   OCC          E(Eh)            E(eV)
   0   2.0000     -19.230852      -523.2981
   1   2.0000     -10.316141      -280.7165
   2   2.0000      -1.133552       -30.8455
   3   2.0000      -0.793480       -21.5917
   4   2.0000      -0.608017       -16.5450
   5   2.0000      -0.540801       -14.7160
   6   2.0000      -0.526774       -14.3342
   7   2.0000      -0.434949       -11.8356
   8   2.0000      -0.372824       -10.1450
   9   0.0000       0.087989         2.3943
  10   0.0000       0.113753         3.0954
  11   0.0000       0.154027         4.1913
  12   0.0000       0.168832         4.5942
  13   0.0000       0.195552         5.3212

MULLIKEN ATOMIC CHARGES
-----------------------
   0 C :   -0.000663
   1 O :    0.000052
   2 H :    0.000004
   3 H :   -0.000124
   4 H :   -0.000017
   5 H :    0.000064
   6 C :   -0.168584
   7 O :   -0.474236
   8 H :    0.316298
   9 H :    0.107002
  10 H :    0.097570
  11 H :    0.122636
Sum of atomic charges:    0.0000000

LOEWDIN ATOMIC CHARGES
----------------------
   0 C :   -0.000341
   1 O :   -0.000108
   2 H :   -0.000007
   3 H :   -0.000098
   4 H :   -0.000013
   5 H :   -0.000001
   6 C :   -0.383489
   7 O :   -0.086489
   8 H :    0.172873
   9 H :    0.094070
  10 H :    0.101454
  11 H :    0.102147

  Mayer bond orders larger than 0.1
B(  6-C ,  7-O ) :   0.9968 B(  6-C ,  9-H ) :   0.9696 B(  6-C , 10-H ) :   0.9821
B(  6-C , 11-H ) :   0.9739 B(  7-O ,  8-H ) :   0.8981

Dispersion correction           -0.000240475
FINAL SINGLE POINT ENERGY      -115.735464703816

DIPOLE MOMENT
-------------
                                X             Y             Z
Electronic contribution:      1.20460      -0.90769      -1.05039
Nuclear contribution   :     -1.74451       1.29566       0.89080
                        -----------------------------------------
Total Dipole Moment    :     -0.53991       0.38798      -0.15959
                        -----------------------------------------
Magnitude (a.u.)       :      0.68374
Magnitude (Debye)      :      1.73792

Rotational constants in cm-1:     4.208580     0.825526     0.797264
Rotational constants in MHz : 126170.039589 24748.640147 23901.368330

                             ****ORCA TERMINATED NORMALLY****
TOTAL RUN TIME: 0 days 0 hours 1 minutes 2 seconds 448 msec
