                         Program Version 4.1.2  - RELEASE  -
|  1> #Run DFT-D3 single point of the dimer
|  2> ! wB97X-D3 def2-TZVP TIGHTSCF CHELPG PMODEL PAL8
|  3>
|  4> %base "9-6_DFT_AB"
|  5>
|  6> %scf
|  7> MaxIter 1000
|  8> end
|  9>
| 10> * xyz 0 1
| 11>   C                      5.326910             4.806322             -3.533113
| 12>   O                      6.034877             3.972360             -4.447765
| 13>   H                      6.237275             3.163824             -3.960999
| 14>   H                      6.014065             5.326131             -2.833834
| 15>   H                      4.817935             5.581777             -4.157801
| 16>   H                      4.623172             4.233674             -2.922331
| 17>   C                      4.706203             3.239788             0.780180
| 18>   O                      4.902455             3.772127             -0.475501
| 19>   H                      5.840434             3.599339             -0.761379
| 20>   H                      5.637058             3.269896             1.351008
| 21>   H                      3.858075             3.700776             1.224186
| 22>   H                      4.302059             2.223933             0.724914
| 23> *
| 24>
| 25> #Run DFT-D3 single point of the molecule with dimer basis set
| 26> $new_job
| 27> %base "9-6_DFT_A"
| 28> ! wB97X-D3 def2-TZVP TIGHTSCF CHELPG PMODEL
| 29>
| 30> %scf
| 31> MaxIter 1000
| 32> end
| 33>
| 34> * xyz 0 1
| 35>   C                      5.326910             4.806322             -3.533113
| 36>   O                      6.034877             3.972360             -4.447765
| 37>   H                      6.237275             3.163824             -3.960999
| 38>   H                      6.014065             5.326131             -2.833834
| 39>   H                      4.817935             5.581777             -4.157801
| 40>   H                      4.623172             4.233674             -2.922331
| 41>   C                    : 4.706203             3.239788             0.780180
| 42>   O                    : 4.902455             3.772127             -0.475501
| 43>   H                    : 5.840434             3.599339             -0.761379
| 44>   H                    : 5.637058             3.269896             1.351008
| 45>   H                    : 3.858075             3.700776             1.224186
| 46>   H                    : 4.302059             2.223933             0.724914
| 47> *
| 48>
| 49> #Run DFT-D3 single point of the particle with dimer basis set
| 50> $new_job
| 51> %base "9-6_DFT_B"
| 52> ! wB97X-D3 def2-TZVP TIGHTSCF CHELPG PMODEL
| 53>
| 54> %scf
| 55> MaxIter 1000
| 56> end
| 57>
| 58> * xyz 0 1
| 59>   C                    : 5.326910             4.806322             -3.533113
| 60>   O                    : 6.034877             3.972360             -4.447765
| 61>   H                    : 6.237275             3.163824             -3.960999
| 62>   H                    : 6.014065             5.326131             -2.833834
| 63>   H                    : 4.817935             5.581777             -4.157801
| 64>   H                    : 4.623172             4.233674             -2.922331
| 65>   C                      4.706203             3.239788             0.780180
| 66>   O                      4.902455             3.772127             -0.475501
| 67>   H                      5.840434             3.599339             -0.761379
| 68>   H                      5.637058             3.269896             1.351008
| 69>   H                      3.858075             3.700776             1.224186
| 70>   H                      4.302059             2.223933             0.724914
| 71> *
| 72>
| 73>                          ****END OF INPUT****
 Total Charge           Charge          ....    0
 Multiplicity           Mult            ....    1
 Number of Electrons    NEL             ....   36
Dispersion correction           -0.001569584
FINAL SINGLE POINT ENERGY      -231.466737685925
Dispersion correction           -0.000242129
FINAL SINGLE POINT ENERGY      -115.735906591543

CARTESIAN COORDINATES (ANGSTROEM)
---------------------------------
  C      5.326910    4.806322   -3.533113
  O      6.034877    3.972360   -4.447765
  H      6.237275    3.163824   -3.960999
  H      6.014065    5.326131   -2.833834
  H      4.817935    5.581777   -4.157801
  H      4.623172    4.233674   -2.922331
  C      4.706203    3.239788    0.780180
  O      4.902455    3.772127   -0.475501
  H      5.840434    3.599339   -0.761379
  H      5.637058    3.269896    1.351008
  H      3.858075    3.700776    1.224186
  H      4.302059    2.223933    0.724914

 Multiplicity           Mult            ....    1
 Number of Electrons    NEL             ....   18
 Basis Dimension        Dim             ....  172

ORBITAL ENERGIES
----------------

  NO   OCC          E(Eh)            E(eV)
   0   2.0000     -19.231584      -523.3180
   1   2.0000     -10.305627      -280.4304
   2   2.0000      -1.140834       -31.0437
   3   2.0000      -0.794505       -21.6196
   4   2.0000      -0.613558       -16.6958
   5   2.0000      -0.552298       -15.0288
   6   2.0000      -0.528968       -14.3940
   7   2.0000      -0.432864       -11.7788
   8   2.0000      -0.365038        -9.9332
   9   0.0000       0.085882         2.3370
  10   0.0000       0.125336         3.4106
  11   0.0000       0.159502         4.3403
  12   0.0000       0.172444         4.6924
  13   0.0000       0.197957         5.3867

MULLIKEN ATOMIC CHARGES
-----------------------
   0 C :    0.003403
   1 O :    0.000122
   2 H :   -0.000404
   3 H :   -0.003240
   4 H :   -0.000487
   5 H :   -0.009221
   6 C :   -0.156331
   7 O :   -0.460584
   8 H :    0.320592
   9 H :    0.101308
  10 H :    0.115047
  11 H :    0.089795
Sum of atomic charges:   -0.0000000

LOEWDIN ATOMIC CHARGES
----------------------
   0 C :   -0.009016
   1 O :   -0.000066
   2 H :   -0.000321
   3 H :   -0.002097
   4 H :   -0.000044
   5 H :   -0.011047
   6 C :   -0.412583
   7 O :   -0.053050
   8 H :    0.195699
   9 H :    0.097250
  10 H :    0.101388
  11 H :    0.093885

  Mayer bond orders larger than 0.1
B(  6-C ,  7-O ) :   1.0108 B(  6-C ,  9-H ) :   0.9825 B(  6-C , 10-H ) :   0.9780
B(  6-C , 11-H ) :   0.9757 B(  7-O ,  8-H ) :   0.8893

Dispersion correction           -0.000227306
FINAL SINGLE POINT ENERGY      -115.729907934174

DIPOLE MOMENT
-------------
                                X             Y             Z
Electronic contribution:      0.20153       0.82526      -1.55573
Nuclear contribution   :      0.29995      -1.12896       1.86653
                        -----------------------------------------
Total Dipole Moment    :      0.50148      -0.30369       0.31080
                        -----------------------------------------
Magnitude (a.u.)       :      0.66356
Magnitude (Debye)      :      1.68664

Rotational constants in cm-1:     4.303577     0.876939     0.828811
Rotational constants in MHz : 129017.978809 26289.969017 24847.130555

                             ****ORCA TERMINATED NORMALLY****
TOTAL RUN TIME: 0 days 0 hours 0 minutes 47 seconds 526 msec
