                         Program Version 4.1.2  - RELEASE  -
|  1> #Run DFT-D3 single point of the dimer
|  2> ! wB97X-D3 def2-TZVP TIGHTSCF CHELPG PMODEL PAL8
|  3>
|  4> %base "8-65_DFT_AB"
|  5>
|  6> %scf
|  7> MaxIter 1000
|  8> end
|  9>
| 10> * xyz 0 1
| 11>   C                      3.247449             0.489047             6.955197
| 12>   O                      3.339960             1.502602             5.982111
| 13>   H                      2.459960             1.640455             5.585835
| 14>   H                      2.534463             0.868375             7.717436
| 15>   H                      2.934831             -0.454493            6.529917
| 16>   H                      4.259433             0.461948             7.314150
| 17>   C                      6.555521             2.875121             5.302771
| 18>   O                      5.960526             2.912413             6.541502
| 19>   H                      5.034107             2.707951             6.433674
| 20>   H                      6.880396             3.815636             4.981021
| 21>   H                      7.546284             2.419773             5.320943
| 22>   H                      5.929050             2.395693             4.578541
| 23> *
| 24>
| 25> #Run DFT-D3 single point of the molecule with dimer basis set
| 26> $new_job
| 27> %base "8-65_DFT_A"
| 28> ! wB97X-D3 def2-TZVP TIGHTSCF CHELPG PMODEL
| 29>
| 30> %scf
| 31> MaxIter 1000
| 32> end
| 33>
| 34> * xyz 0 1
| 35>   C                      3.247449             0.489047             6.955197
| 36>   O                      3.339960             1.502602             5.982111
| 37>   H                      2.459960             1.640455             5.585835
| 38>   H                      2.534463             0.868375             7.717436
| 39>   H                      2.934831             -0.454493            6.529917
| 40>   H                      4.259433             0.461948             7.314150
| 41>   C                    : 6.555521             2.875121             5.302771
| 42>   O                    : 5.960526             2.912413             6.541502
| 43>   H                    : 5.034107             2.707951             6.433674
| 44>   H                    : 6.880396             3.815636             4.981021
| 45>   H                    : 7.546284             2.419773             5.320943
| 46>   H                    : 5.929050             2.395693             4.578541
| 47> *
| 48>
| 49> #Run DFT-D3 single point of the particle with dimer basis set
| 50> $new_job
| 51> %base "8-65_DFT_B"
| 52> ! wB97X-D3 def2-TZVP TIGHTSCF CHELPG PMODEL
| 53>
| 54> %scf
| 55> MaxIter 1000
| 56> end
| 57>
| 58> * xyz 0 1
| 59>   C                    : 3.247449             0.489047             6.955197
| 60>   O                    : 3.339960             1.502602             5.982111
| 61>   H                    : 2.459960             1.640455             5.585835
| 62>   H                    : 2.534463             0.868375             7.717436
| 63>   H                    : 2.934831             -0.454493            6.529917
| 64>   H                    : 4.259433             0.461948             7.314150
| 65>   C                      6.555521             2.875121             5.302771
| 66>   O                      5.960526             2.912413             6.541502
| 67>   H                      5.034107             2.707951             6.433674
| 68>   H                      6.880396             3.815636             4.981021
| 69>   H                      7.546284             2.419773             5.320943
| 70>   H                      5.929050             2.395693             4.578541
| 71> *
| 72>
| 73>                          ****END OF INPUT****
 Total Charge           Charge          ....    0
 Multiplicity           Mult            ....    1
 Number of Electrons    NEL             ....   36
Dispersion correction           -0.001784892
FINAL SINGLE POINT ENERGY      -231.472028037266
Dispersion correction           -0.000215506
FINAL SINGLE POINT ENERGY      -115.733830619641

CARTESIAN COORDINATES (ANGSTROEM)
---------------------------------
  C      3.247449    0.489047    6.955197
  O      3.339960    1.502602    5.982111
  H      2.459960    1.640455    5.585835
  H      2.534463    0.868375    7.717436
  H      2.934831   -0.454493    6.529917
  H      4.259433    0.461948    7.314150
  C      6.555521    2.875121    5.302771
  O      5.960526    2.912413    6.541502
  H      5.034107    2.707951    6.433674
  H      6.880396    3.815636    4.981021
  H      7.546284    2.419773    5.320943
  H      5.929050    2.395693    4.578541

 Multiplicity           Mult            ....    1
 Number of Electrons    NEL             ....   18
 Basis Dimension        Dim             ....  172

ORBITAL ENERGIES
----------------

  NO   OCC          E(Eh)            E(eV)
   0   2.0000     -19.230436      -523.2868
   1   2.0000     -10.301480      -280.3175
   2   2.0000      -1.150269       -31.3004
   3   2.0000      -0.802836       -21.8463
   4   2.0000      -0.622405       -16.9365
   5   2.0000      -0.554448       -15.0873
   6   2.0000      -0.531174       -14.4540
   7   2.0000      -0.436582       -11.8800
   8   2.0000      -0.367188        -9.9917
   9   0.0000       0.070462         1.9174
  10   0.0000       0.133943         3.6448
  11   0.0000       0.157578         4.2879
  12   0.0000       0.165155         4.4941
  13   0.0000       0.188872         5.1395

MULLIKEN ATOMIC CHARGES
-----------------------
   0 C :    0.000015
   1 O :   -0.003000
   2 H :   -0.000115
   3 H :    0.000115
   4 H :   -0.000112
   5 H :   -0.006535
   6 C :   -0.147831
   7 O :   -0.458831
   8 H :    0.318090
   9 H :    0.097402
  10 H :    0.100554
  11 H :    0.100248
Sum of atomic charges:   -0.0000000

LOEWDIN ATOMIC CHARGES
----------------------
   0 C :   -0.004610
   1 O :   -0.011524
   2 H :   -0.000473
   3 H :   -0.000074
   4 H :   -0.000055
   5 H :   -0.003866
   6 C :   -0.407450
   7 O :   -0.031709
   8 H :    0.174926
   9 H :    0.087179
  10 H :    0.103941
  11 H :    0.093714

  Mayer bond orders larger than 0.1
B(  6-C ,  7-O ) :   1.0091 B(  6-C ,  9-H ) :   0.9844 B(  6-C , 10-H ) :   0.9773
B(  6-C , 11-H ) :   0.9876 B(  7-O ,  8-H ) :   0.9046

Dispersion correction           -0.000227656
FINAL SINGLE POINT ENERGY      -115.729141783016

DIPOLE MOMENT
-------------
                                X             Y             Z
Electronic contribution:     -0.78297       0.06939       1.67740
Nuclear contribution   :      0.42833      -0.20192      -2.22743
                        -----------------------------------------
Total Dipole Moment    :     -0.35465      -0.13253      -0.55003
                        -----------------------------------------
Magnitude (a.u.)       :      0.66773
Magnitude (Debye)      :      1.69724

Rotational constants in cm-1:     4.574705     0.878510     0.829163
Rotational constants in MHz : 137146.218672 26337.064209 24857.686920

                             ****ORCA TERMINATED NORMALLY****
TOTAL RUN TIME: 0 days 0 hours 0 minutes 47 seconds 595 msec
