                         Program Version 4.1.2  - RELEASE  -
|  1> #Run DFT-D3 single point of the dimer
|  2> ! wB97X-D3 def2-TZVP TIGHTSCF CHELPG PMODEL PAL8
|  3>
|  4> %base "4-144_DFT_AB"
|  5>
|  6> %scf
|  7> MaxIter 1000
|  8> end
|  9>
| 10> * xyz 0 1
| 11>   C                      5.575884             3.455816             2.278661
| 12>   O                      5.570222             4.240747             1.097227
| 13>   H                      5.316256             5.104723             1.255462
| 14>   H                      6.440792             2.781911             2.223781
| 15>   H                      5.662425             4.071573             3.151950
| 16>   H                      4.681182             2.723832             2.396170
| 17>   C                      0.499944             2.016272             1.286376
| 18>   O                      0.866072             3.169412             0.578856
| 19>   H                      0.055957             3.482586             0.160264
| 20>   H                      1.299796             1.679645             1.979044
| 21>   H                      -0.389143            2.323690             1.847846
| 22>   H                      0.152647             1.207427             0.702167
| 23> *
| 24>
| 25> #Run DFT-D3 single point of the molecule with dimer basis set
| 26> $new_job
| 27> %base "4-144_DFT_A"
| 28> ! wB97X-D3 def2-TZVP TIGHTSCF CHELPG PMODEL
| 29>
| 30> %scf
| 31> MaxIter 1000
| 32> end
| 33>
| 34> * xyz 0 1
| 35>   C                      5.575884             3.455816             2.278661
| 36>   O                      5.570222             4.240747             1.097227
| 37>   H                      5.316256             5.104723             1.255462
| 38>   H                      6.440792             2.781911             2.223781
| 39>   H                      5.662425             4.071573             3.151950
| 40>   H                      4.681182             2.723832             2.396170
| 41>   C                    : 0.499944             2.016272             1.286376
| 42>   O                    : 0.866072             3.169412             0.578856
| 43>   H                    : 0.055957             3.482586             0.160264
| 44>   H                    : 1.299796             1.679645             1.979044
| 45>   H                    : -0.389143            2.323690             1.847846
| 46>   H                    : 0.152647             1.207427             0.702167
| 47> *
| 48>
| 49> #Run DFT-D3 single point of the particle with dimer basis set
| 50> $new_job
| 51> %base "4-144_DFT_B"
| 52> ! wB97X-D3 def2-TZVP TIGHTSCF CHELPG PMODEL
| 53>
| 54> %scf
| 55> MaxIter 1000
| 56> end
| 57>
| 58> * xyz 0 1
| 59>   C                    : 5.575884             3.455816             2.278661
| 60>   O                    : 5.570222             4.240747             1.097227
| 61>   H                    : 5.316256             5.104723             1.255462
| 62>   H                    : 6.440792             2.781911             2.223781
| 63>   H                    : 5.662425             4.071573             3.151950
| 64>   H                    : 4.681182             2.723832             2.396170
| 65>   C                      0.499944             2.016272             1.286376
| 66>   O                      0.866072             3.169412             0.578856
| 67>   H                      0.055957             3.482586             0.160264
| 68>   H                      1.299796             1.679645             1.979044
| 69>   H                      -0.389143            2.323690             1.847846
| 70>   H                      0.152647             1.207427             0.702167
| 71> *
| 72>
| 73>                          ****END OF INPUT****
 Total Charge           Charge          ....    0
 Multiplicity           Mult            ....    1
 Number of Electrons    NEL             ....   36
Dispersion correction           -0.000762753
FINAL SINGLE POINT ENERGY      -231.461513947733
Dispersion correction           -0.000266053
FINAL SINGLE POINT ENERGY      -115.730403673074

CARTESIAN COORDINATES (ANGSTROEM)
---------------------------------
  C      5.575884    3.455816    2.278661
  O      5.570222    4.240747    1.097227
  H      5.316256    5.104723    1.255462
  H      6.440792    2.781911    2.223781
  H      5.662425    4.071573    3.151950
  H      4.681182    2.723832    2.396170
  C      0.499944    2.016272    1.286376
  O      0.866072    3.169412    0.578856
  H      0.055957    3.482586    0.160264
  H      1.299796    1.679645    1.979044
  H     -0.389143    2.323690    1.847846
  H      0.152647    1.207427    0.702167

 Multiplicity           Mult            ....    1
 Number of Electrons    NEL             ....   18
 Basis Dimension        Dim             ....  172

ORBITAL ENERGIES
----------------

  NO   OCC          E(Eh)            E(eV)
   0   2.0000     -19.229444      -523.2598
   1   2.0000     -10.309764      -280.5429
   2   2.0000      -1.141052       -31.0496
   3   2.0000      -0.794119       -21.6091
   4   2.0000      -0.616147       -16.7662
   5   2.0000      -0.542727       -14.7683
   6   2.0000      -0.530180       -14.4269
   7   2.0000      -0.436822       -11.8865
   8   2.0000      -0.369243       -10.0476
   9   0.0000       0.092721         2.5231
  10   0.0000       0.113336         3.0840
  11   0.0000       0.153059         4.1650
  12   0.0000       0.172714         4.6998
  13   0.0000       0.182587         4.9684

MULLIKEN ATOMIC CHARGES
-----------------------
   0 C :   -0.000069
   1 O :    0.000012
   2 H :   -0.000018
   3 H :   -0.000000
   4 H :    0.000005
   5 H :   -0.000053
   6 C :   -0.171343
   7 O :   -0.469954
   8 H :    0.315371
   9 H :    0.122484
  10 H :    0.098471
  11 H :    0.105095
Sum of atomic charges:   -0.0000000

LOEWDIN ATOMIC CHARGES
----------------------
   0 C :   -0.000067
   1 O :   -0.000010
   2 H :   -0.000018
   3 H :   -0.000002
   4 H :   -0.000001
   5 H :   -0.000079
   6 C :   -0.394649
   7 O :   -0.072769
   8 H :    0.174068
   9 H :    0.112784
  10 H :    0.096537
  11 H :    0.084205

  Mayer bond orders larger than 0.1
B(  6-C ,  7-O ) :   0.9957 B(  6-C ,  9-H ) :   0.9708 B(  6-C , 10-H ) :   0.9965
B(  6-C , 11-H ) :   0.9666 B(  7-O ,  8-H ) :   0.8988

Dispersion correction           -0.000213841
FINAL SINGLE POINT ENERGY      -115.731265270815

DIPOLE MOMENT
-------------
                                X             Y             Z
Electronic contribution:      0.74323       1.38191      -0.93550
Nuclear contribution   :     -1.40505      -1.63723       0.94658
                        -----------------------------------------
Total Dipole Moment    :     -0.66183      -0.25532       0.01108
                        -----------------------------------------
Magnitude (a.u.)       :      0.70946
Magnitude (Debye)      :      1.80330

Rotational constants in cm-1:     4.314317     0.855714     0.811999
Rotational constants in MHz : 129339.975396 25653.659246 24343.108751

                             ****ORCA TERMINATED NORMALLY****
TOTAL RUN TIME: 0 days 0 hours 1 minutes 33 seconds 738 msec
