                         Program Version 4.1.2  - RELEASE  -
|  1> #Run DFT-D3 single point of the dimer
|  2> ! wB97X-D3 def2-TZVP TIGHTSCF CHELPG PMODEL PAL8
|  3>
|  4> %base "19-42_DFT_AB"
|  5>
|  6> %scf
|  7> MaxIter 1000
|  8> end
|  9>
| 10> * xyz 0 1
| 11>   C                      7.257563             6.735818             4.442851
| 12>   O                      8.386543             7.556154             4.548185
| 13>   H                      9.044606             7.039462             5.018656
| 14>   H                      7.278685             6.428361             3.430371
| 15>   H                      7.463774             5.931356             5.183014
| 16>   H                      6.305239             7.244127             4.579032
| 17>   C                      11.073662            6.342636             0.369597
| 18>   O                      11.886462            7.488756             0.376331
| 19>   H                      11.392276            8.242452             0.027314
| 20>   H                      10.199654            6.407446             1.005995
| 21>   H                      10.665028            6.053792             -0.627983
| 22>   H                      11.682940            5.501233             0.744237
| 23> *
| 24>
| 25> #Run DFT-D3 single point of the molecule with dimer basis set
| 26> $new_job
| 27> %base "19-42_DFT_A"
| 28> ! wB97X-D3 def2-TZVP TIGHTSCF CHELPG PMODEL
| 29>
| 30> %scf
| 31> MaxIter 1000
| 32> end
| 33>
| 34> * xyz 0 1
| 35>   C                      7.257563             6.735818             4.442851
| 36>   O                      8.386543             7.556154             4.548185
| 37>   H                      9.044606             7.039462             5.018656
| 38>   H                      7.278685             6.428361             3.430371
| 39>   H                      7.463774             5.931356             5.183014
| 40>   H                      6.305239             7.244127             4.579032
| 41>   C                    : 11.073662            6.342636             0.369597
| 42>   O                    : 11.886462            7.488756             0.376331
| 43>   H                    : 11.392276            8.242452             0.027314
| 44>   H                    : 10.199654            6.407446             1.005995
| 45>   H                    : 10.665028            6.053792             -0.627983
| 46>   H                    : 11.682940            5.501233             0.744237
| 47> *
| 48>
| 49> #Run DFT-D3 single point of the particle with dimer basis set
| 50> $new_job
| 51> %base "19-42_DFT_B"
| 52> ! wB97X-D3 def2-TZVP TIGHTSCF CHELPG PMODEL
| 53>
| 54> %scf
| 55> MaxIter 1000
| 56> end
| 57>
| 58> * xyz 0 1
| 59>   C                    : 7.257563             6.735818             4.442851
| 60>   O                    : 8.386543             7.556154             4.548185
| 61>   H                    : 9.044606             7.039462             5.018656
| 62>   H                    : 7.278685             6.428361             3.430371
| 63>   H                    : 7.463774             5.931356             5.183014
| 64>   H                    : 6.305239             7.244127             4.579032
| 65>   C                      11.073662            6.342636             0.369597
| 66>   O                      11.886462            7.488756             0.376331
| 67>   H                      11.392276            8.242452             0.027314
| 68>   H                      10.199654            6.407446             1.005995
| 69>   H                      10.665028            6.053792             -0.627983
| 70>   H                      11.682940            5.501233             0.744237
| 71> *
| 72>
| 73>                          ****END OF INPUT****
 Total Charge           Charge          ....    0
 Multiplicity           Mult            ....    1
 Number of Electrons    NEL             ....   36
Dispersion correction           -0.000708036
FINAL SINGLE POINT ENERGY      -231.463281291904
Dispersion correction           -0.000206596
FINAL SINGLE POINT ENERGY      -115.726504417701

CARTESIAN COORDINATES (ANGSTROEM)
---------------------------------
  C      7.257563    6.735818    4.442851
  O      8.386543    7.556154    4.548185
  H      9.044606    7.039462    5.018656
  H      7.278685    6.428361    3.430371
  H      7.463774    5.931356    5.183014
  H      6.305239    7.244127    4.579032
  C     11.073662    6.342636    0.369597
  O     11.886462    7.488756    0.376331
  H     11.392276    8.242452    0.027314
  H     10.199654    6.407446    1.005995
  H     10.665028    6.053792   -0.627983
  H     11.682940    5.501233    0.744237

 Multiplicity           Mult            ....    1
 Number of Electrons    NEL             ....   18
 Basis Dimension        Dim             ....  172

ORBITAL ENERGIES
----------------

  NO   OCC          E(Eh)            E(eV)
   0   2.0000     -19.233020      -523.3571
   1   2.0000     -10.314369      -280.6683
   2   2.0000      -1.137686       -30.9580
   3   2.0000      -0.794884       -21.6299
   4   2.0000      -0.616292       -16.7702
   5   2.0000      -0.535432       -14.5698
   6   2.0000      -0.525866       -14.3095
   7   2.0000      -0.434327       -11.8186
   8   2.0000      -0.373695       -10.1688
   9   0.0000       0.084671         2.3040
  10   0.0000       0.116712         3.1759
  11   0.0000       0.149472         4.0673
  12   0.0000       0.166449         4.5293
  13   0.0000       0.181596         4.9415

MULLIKEN ATOMIC CHARGES
-----------------------
   0 C :    0.000077
   1 O :   -0.000008
   2 H :   -0.000000
   3 H :   -0.000193
   4 H :   -0.000003
   5 H :   -0.000006
   6 C :   -0.153738
   7 O :   -0.473397
   8 H :    0.315107
   9 H :    0.100046
  10 H :    0.092173
  11 H :    0.119941
Sum of atomic charges:   -0.0000000

LOEWDIN ATOMIC CHARGES
----------------------
   0 C :   -0.000098
   1 O :   -0.000024
   2 H :   -0.000017
   3 H :   -0.000167
   4 H :   -0.000001
   5 H :   -0.000001
   6 C :   -0.398327
   7 O :   -0.071154
   8 H :    0.172577
   9 H :    0.089446
  10 H :    0.095150
  11 H :    0.112616

  Mayer bond orders larger than 0.1
B(  6-C ,  7-O ) :   1.0037 B(  6-C ,  9-H ) :   0.9729 B(  6-C , 10-H ) :   0.9728
B(  6-C , 11-H ) :   0.9747 B(  7-O ,  8-H ) :   0.8966

Dispersion correction           -0.000256371
FINAL SINGLE POINT ENERGY      -115.736343106674

DIPOLE MOMENT
-------------
                                X             Y             Z
Electronic contribution:      1.17627       1.48948       0.06838
Nuclear contribution   :     -1.80776      -1.45518      -0.28209
                        -----------------------------------------
Total Dipole Moment    :     -0.63149       0.03430      -0.21371
                        -----------------------------------------
Magnitude (a.u.)       :      0.66755
Magnitude (Debye)      :      1.69678

Rotational constants in cm-1:     4.336140     0.831791     0.797881
Rotational constants in MHz : 129994.203693 24936.474483 23919.860896

                             ****ORCA TERMINATED NORMALLY****
TOTAL RUN TIME: 0 days 0 hours 0 minutes 39 seconds 968 msec
