                         Program Version 4.1.2  - RELEASE  -
|  1> #Run DFT-D3 single point of the dimer
|  2> ! wB97X-D3 def2-TZVP TIGHTSCF CHELPG PMODEL PAL8
|  3>
|  4> %base "4-168_DFT_AB"
|  5>
|  6> %scf
|  7> MaxIter 1000
|  8> end
|  9>
| 10> * xyz 0 1
| 11>   C                      -7.014572            -8.744374            -4.994089
| 12>   O                      -5.870360            -9.366876            -4.600891
| 13>   H                      -5.516173            -8.739271            -3.999200
| 14>   H                      -7.055733            -7.713367            -4.690389
| 15>   H                      -7.110317            -8.775294            -6.043839
| 16>   H                      -7.840402            -9.127024            -4.534467
| 17>   C                      -5.252055            -9.759697            -0.851387
| 18>   O                      -4.094969            -10.237393           -1.399466
| 19>   H                      -4.355616            -10.689949           -2.261042
| 20>   H                      -5.503962            -10.286703           0.104777
| 21>   H                      -5.292786            -8.615948            -0.766921
| 22>   H                      -6.157167            -10.123109           -1.483756
| 23> *
| 24>
| 25> #Run DFT-D3 single point of the molecule with dimer basis set
| 26> $new_job
| 27> %base "4-168_DFT_A"
| 28> ! wB97X-D3 def2-TZVP TIGHTSCF CHELPG PMODEL
| 29>
| 30> %scf
| 31> MaxIter 1000
| 32> end
| 33>
| 34> * xyz 0 1
| 35>   C                      -7.014572            -8.744374            -4.994089
| 36>   O                      -5.870360            -9.366876            -4.600891
| 37>   H                      -5.516173            -8.739271            -3.999200
| 38>   H                      -7.055733            -7.713367            -4.690389
| 39>   H                      -7.110317            -8.775294            -6.043839
| 40>   H                      -7.840402            -9.127024            -4.534467
| 41>   C                    : -5.252055            -9.759697            -0.851387
| 42>   O                    : -4.094969            -10.237393           -1.399466
| 43>   H                    : -4.355616            -10.689949           -2.261042
| 44>   H                    : -5.503962            -10.286703           0.104777
| 45>   H                    : -5.292786            -8.615948            -0.766921
| 46>   H                    : -6.157167            -10.123109           -1.483756
| 47> *
| 48>
| 49> #Run DFT-D3 single point of the particle with dimer basis set
| 50> $new_job
| 51> %base "4-168_DFT_B"
| 52> ! wB97X-D3 def2-TZVP TIGHTSCF CHELPG PMODEL
| 53>
| 54> %scf
| 55> MaxIter 1000
| 56> end
| 57>
| 58> * xyz 0 1
| 59>   C                    : -7.014572            -8.744374            -4.994089
| 60>   O                    : -5.870360            -9.366876            -4.600891
| 61>   H                    : -5.516173            -8.739271            -3.999200
| 62>   H                    : -7.055733            -7.713367            -4.690389
| 63>   H                    : -7.110317            -8.775294            -6.043839
| 64>   H                    : -7.840402            -9.127024            -4.534467
| 65>   C                      -5.252055            -9.759697            -0.851387
| 66>   O                      -4.094969            -10.237393           -1.399466
| 67>   H                      -4.355616            -10.689949           -2.261042
| 68>   H                      -5.503962            -10.286703           0.104777
| 69>   H                      -5.292786            -8.615948            -0.766921
| 70>   H                      -6.157167            -10.123109           -1.483756
| 71> *
| 72>
| 73>                          ****END OF INPUT****
 Total Charge           Charge          ....    0
 Multiplicity           Mult            ....    1
 Number of Electrons    NEL             ....   36
Dispersion correction           -0.001610825
FINAL SINGLE POINT ENERGY      -231.452571650749
Dispersion correction           -0.000188475
FINAL SINGLE POINT ENERGY      -115.725041079555

CARTESIAN COORDINATES (ANGSTROEM)
---------------------------------
  C     -7.014572   -8.744374   -4.994089
  O     -5.870360   -9.366876   -4.600891
  H     -5.516173   -8.739271   -3.999200
  H     -7.055733   -7.713367   -4.690389
  H     -7.110317   -8.775294   -6.043839
  H     -7.840402   -9.127024   -4.534467
  C     -5.252055   -9.759697   -0.851387
  O     -4.094969  -10.237393   -1.399466
  H     -4.355616  -10.689949   -2.261042
  H     -5.503962  -10.286703    0.104777
  H     -5.292786   -8.615948   -0.766921
  H     -6.157167  -10.123109   -1.483756

 Multiplicity           Mult            ....    1
 Number of Electrons    NEL             ....   18
 Basis Dimension        Dim             ....  172

ORBITAL ENERGIES
----------------

  NO   OCC          E(Eh)            E(eV)
   0   2.0000     -19.237558      -523.4806
   1   2.0000     -10.324587      -280.9463
   2   2.0000      -1.147570       -31.2270
   3   2.0000      -0.777664       -21.1613
   4   2.0000      -0.615137       -16.7387
   5   2.0000      -0.546397       -14.8682
   6   2.0000      -0.526350       -14.3227
   7   2.0000      -0.417289       -11.3550
   8   2.0000      -0.373064       -10.1516
   9   0.0000       0.073323         1.9952
  10   0.0000       0.112103         3.0505
  11   0.0000       0.148220         4.0333
  12   0.0000       0.168309         4.5799
  13   0.0000       0.193522         5.2660

MULLIKEN ATOMIC CHARGES
-----------------------
   0 C :   -0.000128
   1 O :   -0.000344
   2 H :   -0.001071
   3 H :   -0.000078
   4 H :   -0.000004
   5 H :   -0.000218
   6 C :   -0.172417
   7 O :   -0.458054
   8 H :    0.329566
   9 H :    0.106093
  10 H :    0.107562
  11 H :    0.089094
Sum of atomic charges:   -0.0000000

LOEWDIN ATOMIC CHARGES
----------------------
   0 C :   -0.000684
   1 O :   -0.001122
   2 H :   -0.001957
   3 H :   -0.000031
   4 H :   -0.000006
   5 H :   -0.000176
   6 C :   -0.448605
   7 O :   -0.062416
   8 H :    0.205029
   9 H :    0.101191
  10 H :    0.106639
  11 H :    0.102139

  Mayer bond orders larger than 0.1
B(  6-C ,  7-O ) :   1.0128 B(  6-C ,  9-H ) :   0.9694 B(  6-C , 10-H ) :   0.9671
B(  6-C , 11-H ) :   0.9928 B(  7-O ,  8-H ) :   0.8882

Dispersion correction           -0.000250255
FINAL SINGLE POINT ENERGY      -115.724060747296

DIPOLE MOMENT
-------------
                                X             Y             Z
Electronic contribution:      1.83854      -0.48772      -0.56749
Nuclear contribution   :     -2.40652       0.33672       0.20212
                        -----------------------------------------
Total Dipole Moment    :     -0.56799      -0.15101      -0.36537
                        -----------------------------------------
Magnitude (a.u.)       :      0.69203
Magnitude (Debye)      :      1.75900

Rotational constants in cm-1:     3.945147     0.863059     0.832855
Rotational constants in MHz : 118272.533807 25873.862360 24968.351238

                             ****ORCA TERMINATED NORMALLY****
TOTAL RUN TIME: 0 days 0 hours 1 minutes 27 seconds 985 msec
