                         Program Version 4.1.2  - RELEASE  -
|  1> #Run DFT-D3 single point of the dimer
|  2> ! wB97X-D3 def2-TZVP TIGHTSCF CHELPG PMODEL PAL8
|  3>
|  4> %base "22-59_DFT_AB"
|  5>
|  6> %scf
|  7> MaxIter 1000
|  8> end
|  9>
| 10> * xyz 0 1
| 11>   C                      5.509219             -5.286384            -2.629828
| 12>   O                      6.356411             -4.322206            -3.312786
| 13>   H                      5.806492             -3.659072            -3.753185
| 14>   H                      4.710320             -5.785805            -3.279945
| 15>   H                      6.199272             -6.152955            -2.356879
| 16>   H                      4.910016             -4.863904            -1.771712
| 17>   C                      0.511696             -5.035724            -4.414051
| 18>   O                      -0.461981            -4.010277            -4.344628
| 19>   H                      -0.624218            -3.699652            -5.237201
| 20>   H                      1.403724             -4.777239            -4.950176
| 21>   H                      0.839149             -5.174836            -3.425856
| 22>   H                      0.079656             -5.903460            -4.905516
| 23> *
| 24>
| 25> #Run DFT-D3 single point of the molecule with dimer basis set
| 26> $new_job
| 27> %base "22-59_DFT_A"
| 28> ! wB97X-D3 def2-TZVP TIGHTSCF CHELPG PMODEL
| 29>
| 30> %scf
| 31> MaxIter 1000
| 32> end
| 33>
| 34> * xyz 0 1
| 35>   C                      5.509219             -5.286384            -2.629828
| 36>   O                      6.356411             -4.322206            -3.312786
| 37>   H                      5.806492             -3.659072            -3.753185
| 38>   H                      4.710320             -5.785805            -3.279945
| 39>   H                      6.199272             -6.152955            -2.356879
| 40>   H                      4.910016             -4.863904            -1.771712
| 41>   C                    : 0.511696             -5.035724            -4.414051
| 42>   O                    : -0.461981            -4.010277            -4.344628
| 43>   H                    : -0.624218            -3.699652            -5.237201
| 44>   H                    : 1.403724             -4.777239            -4.950176
| 45>   H                    : 0.839149             -5.174836            -3.425856
| 46>   H                    : 0.079656             -5.903460            -4.905516
| 47> *
| 48>
| 49> #Run DFT-D3 single point of the particle with dimer basis set
| 50> $new_job
| 51> %base "22-59_DFT_B"
| 52> ! wB97X-D3 def2-TZVP TIGHTSCF CHELPG PMODEL
| 53>
| 54> %scf
| 55> MaxIter 1000
| 56> end
| 57>
| 58> * xyz 0 1
| 59>   C                    : 5.509219             -5.286384            -2.629828
| 60>   O                    : 6.356411             -4.322206            -3.312786
| 61>   H                    : 5.806492             -3.659072            -3.753185
| 62>   H                    : 4.710320             -5.785805            -3.279945
| 63>   H                    : 6.199272             -6.152955            -2.356879
| 64>   H                    : 4.910016             -4.863904            -1.771712
| 65>   C                      0.511696             -5.035724            -4.414051
| 66>   O                      -0.461981            -4.010277            -4.344628
| 67>   H                      -0.624218            -3.699652            -5.237201
| 68>   H                      1.403724             -4.777239            -4.950176
| 69>   H                      0.839149             -5.174836            -3.425856
| 70>   H                      0.079656             -5.903460            -4.905516
| 71> *
| 72>
| 73>                          ****END OF INPUT****
 Total Charge           Charge          ....    0
 Multiplicity           Mult            ....    1
 Number of Electrons    NEL             ....   36
Dispersion correction           -0.000770619
FINAL SINGLE POINT ENERGY      -231.464084716712
Dispersion correction           -0.000300120
FINAL SINGLE POINT ENERGY      -115.729979908198

CARTESIAN COORDINATES (ANGSTROEM)
---------------------------------
  C      5.509219   -5.286384   -2.629828
  O      6.356411   -4.322206   -3.312786
  H      5.806492   -3.659072   -3.753185
  H      4.710320   -5.785805   -3.279945
  H      6.199272   -6.152955   -2.356879
  H      4.910016   -4.863904   -1.771712
  C      0.511696   -5.035724   -4.414051
  O     -0.461981   -4.010277   -4.344628
  H     -0.624218   -3.699652   -5.237201
  H      1.403724   -4.777239   -4.950176
  H      0.839149   -5.174836   -3.425856
  H      0.079656   -5.903460   -4.905516

 Multiplicity           Mult            ....    1
 Number of Electrons    NEL             ....   18
 Basis Dimension        Dim             ....  172

ORBITAL ENERGIES
----------------

  NO   OCC          E(Eh)            E(eV)
   0   2.0000     -19.227720      -523.2129
   1   2.0000     -10.303838      -280.3817
   2   2.0000      -1.134753       -30.8782
   3   2.0000      -0.800679       -21.7876
   4   2.0000      -0.612806       -16.6753
   5   2.0000      -0.550439       -14.9782
   6   2.0000      -0.519859       -14.1461
   7   2.0000      -0.437928       -11.9166
   8   2.0000      -0.373118       -10.1531
   9   0.0000       0.082092         2.2338
  10   0.0000       0.117279         3.1913
  11   0.0000       0.149489         4.0678
  12   0.0000       0.161409         4.3922
  13   0.0000       0.188357         5.1255

MULLIKEN ATOMIC CHARGES
-----------------------
   0 C :    0.000107
   1 O :   -0.000000
   2 H :   -0.000014
   3 H :   -0.000218
   4 H :   -0.000007
   5 H :   -0.000024
   6 C :   -0.154780
   7 O :   -0.473801
   8 H :    0.310540
   9 H :    0.099639
  10 H :    0.119318
  11 H :    0.099242
Sum of atomic charges:    0.0000000

LOEWDIN ATOMIC CHARGES
----------------------
   0 C :   -0.000055
   1 O :   -0.000002
   2 H :   -0.000007
   3 H :   -0.000131
   4 H :   -0.000000
   5 H :   -0.000010
   6 C :   -0.374481
   7 O :   -0.077594
   8 H :    0.165570
   9 H :    0.090178
  10 H :    0.101366
  11 H :    0.095167

  Mayer bond orders larger than 0.1
B(  6-C ,  7-O ) :   1.0002 B(  6-C ,  9-H ) :   0.9739 B(  6-C , 10-H ) :   0.9765
B(  6-C , 11-H ) :   0.9796 B(  7-O ,  8-H ) :   0.9025

Dispersion correction           -0.000226021
FINAL SINGLE POINT ENERGY      -115.733919631922

DIPOLE MOMENT
-------------
                                X             Y             Z
Electronic contribution:     -1.22258       1.23107       0.24866
Nuclear contribution   :      1.53161      -1.43215      -0.83656
                        -----------------------------------------
Total Dipole Moment    :      0.30903      -0.20107      -0.58790
                        -----------------------------------------
Magnitude (a.u.)       :      0.69394
Magnitude (Debye)      :      1.76386

Rotational constants in cm-1:     4.405393     0.838983     0.809306
Rotational constants in MHz : 132070.344738 25152.080155 24262.368706

                             ****ORCA TERMINATED NORMALLY****
TOTAL RUN TIME: 0 days 0 hours 0 minutes 48 seconds 411 msec
