                         Program Version 4.1.2  - RELEASE  -
|  1> #Run DFT-D3 single point of the dimer
|  2> ! wB97X-D3 def2-TZVP TIGHTSCF CHELPG PMODEL PAL8
|  3>
|  4> %base "4-170_DFT_AB"
|  5>
|  6> %scf
|  7> MaxIter 1000
|  8> end
|  9>
| 10> * xyz 0 1
| 11>   C                      -1.655024            -2.622084            6.139946
| 12>   O                      -1.531129            -1.834300            7.361114
| 13>   H                      -1.541727            -0.877771            7.056035
| 14>   H                      -0.878289            -3.404570            6.044544
| 15>   H                      -2.657406            -3.054466            5.974632
| 16>   H                      -1.310091            -2.022872            5.289386
| 17>   C                      -3.154112            1.021255             8.295838
| 18>   O                      -2.076771            1.277094             7.378946
| 19>   H                      -1.328674            1.533873             7.973581
| 20>   H                      -3.482555            -0.035456            8.307757
| 21>   H                      -2.847816            1.249508             9.316630
| 22>   H                      -4.133166            1.517679             7.981497
| 23> *
| 24>
| 25> #Run DFT-D3 single point of the molecule with dimer basis set
| 26> $new_job
| 27> %base "4-170_DFT_A"
| 28> ! wB97X-D3 def2-TZVP TIGHTSCF CHELPG PMODEL
| 29>
| 30> %scf
| 31> MaxIter 1000
| 32> end
| 33>
| 34> * xyz 0 1
| 35>   C                      -1.655024            -2.622084            6.139946
| 36>   O                      -1.531129            -1.834300            7.361114
| 37>   H                      -1.541727            -0.877771            7.056035
| 38>   H                      -0.878289            -3.404570            6.044544
| 39>   H                      -2.657406            -3.054466            5.974632
| 40>   H                      -1.310091            -2.022872            5.289386
| 41>   C                    : -3.154112            1.021255             8.295838
| 42>   O                    : -2.076771            1.277094             7.378946
| 43>   H                    : -1.328674            1.533873             7.973581
| 44>   H                    : -3.482555            -0.035456            8.307757
| 45>   H                    : -2.847816            1.249508             9.316630
| 46>   H                    : -4.133166            1.517679             7.981497
| 47> *
| 48>
| 49> #Run DFT-D3 single point of the particle with dimer basis set
| 50> $new_job
| 51> %base "4-170_DFT_B"
| 52> ! wB97X-D3 def2-TZVP TIGHTSCF CHELPG PMODEL
| 53>
| 54> %scf
| 55> MaxIter 1000
| 56> end
| 57>
| 58> * xyz 0 1
| 59>   C                    : -1.655024            -2.622084            6.139946
| 60>   O                    : -1.531129            -1.834300            7.361114
| 61>   H                    : -1.541727            -0.877771            7.056035
| 62>   H                    : -0.878289            -3.404570            6.044544
| 63>   H                    : -2.657406            -3.054466            5.974632
| 64>   H                    : -1.310091            -2.022872            5.289386
| 65>   C                      -3.154112            1.021255             8.295838
| 66>   O                      -2.076771            1.277094             7.378946
| 67>   H                      -1.328674            1.533873             7.973581
| 68>   H                      -3.482555            -0.035456            8.307757
| 69>   H                      -2.847816            1.249508             9.316630
| 70>   H                      -4.133166            1.517679             7.981497
| 71> *
| 72>
| 73>                          ****END OF INPUT****
 Total Charge           Charge          ....    0
 Multiplicity           Mult            ....    1
 Number of Electrons    NEL             ....   36
Dispersion correction           -0.001773225
FINAL SINGLE POINT ENERGY      -231.465525940667
Dispersion correction           -0.000273963
FINAL SINGLE POINT ENERGY      -115.727989352746

CARTESIAN COORDINATES (ANGSTROEM)
---------------------------------
  C     -1.655024   -2.622084    6.139946
  O     -1.531129   -1.834300    7.361114
  H     -1.541727   -0.877771    7.056035
  H     -0.878289   -3.404570    6.044544
  H     -2.657406   -3.054466    5.974632
  H     -1.310091   -2.022872    5.289386
  C     -3.154112    1.021255    8.295838
  O     -2.076771    1.277094    7.378946
  H     -1.328674    1.533873    7.973581
  H     -3.482555   -0.035456    8.307757
  H     -2.847816    1.249508    9.316630
  H     -4.133166    1.517679    7.981497

 Multiplicity           Mult            ....    1
 Number of Electrons    NEL             ....   18
 Basis Dimension        Dim             ....  172

ORBITAL ENERGIES
----------------

  NO   OCC          E(Eh)            E(eV)
   0   2.0000     -19.238122      -523.4959
   1   2.0000     -10.321825      -280.8711
   2   2.0000      -1.129009       -30.7219
   3   2.0000      -0.789705       -21.4890
   4   2.0000      -0.607424       -16.5289
   5   2.0000      -0.533418       -14.5150
   6   2.0000      -0.521063       -14.1788
   7   2.0000      -0.443265       -12.0619
   8   2.0000      -0.371326       -10.1043
   9   0.0000       0.091750         2.4966
  10   0.0000       0.114095         3.1047
  11   0.0000       0.146737         3.9929
  12   0.0000       0.181843         4.9482
  13   0.0000       0.194347         5.2884

MULLIKEN ATOMIC CHARGES
-----------------------
   0 C :    0.000960
   1 O :   -0.000626
   2 H :   -0.008304
   3 H :   -0.000039
   4 H :   -0.000074
   5 H :   -0.000550
   6 C :   -0.185590
   7 O :   -0.458528
   8 H :    0.319735
   9 H :    0.109923
  10 H :    0.109384
  11 H :    0.113709
Sum of atomic charges:    0.0000000

LOEWDIN ATOMIC CHARGES
----------------------
   0 C :   -0.000554
   1 O :   -0.003438
   2 H :   -0.023247
   3 H :   -0.000005
   4 H :   -0.000035
   5 H :   -0.000118
   6 C :   -0.383232
   7 O :   -0.085513
   8 H :    0.189702
   9 H :    0.100096
  10 H :    0.095653
  11 H :    0.110693

  Mayer bond orders larger than 0.1
B(  6-C ,  7-O ) :   1.0106 B(  6-C ,  9-H ) :   0.9760 B(  6-C , 10-H ) :   0.9839
B(  6-C , 11-H ) :   0.9734 B(  7-O ,  8-H ) :   0.8966

Dispersion correction           -0.000266515
FINAL SINGLE POINT ENERGY      -115.729704631380

DIPOLE MOMENT
-------------
                                X             Y             Z
Electronic contribution:      1.38439       0.38349      -1.29606
Nuclear contribution   :     -1.33513      -0.32947       2.03594
                        -----------------------------------------
Total Dipole Moment    :      0.04926       0.05402       0.73988
                        -----------------------------------------
Magnitude (a.u.)       :      0.74348
Magnitude (Debye)      :      1.88979

Rotational constants in cm-1:     4.171739     0.809083     0.766943
Rotational constants in MHz : 125065.593628 24255.683850 22992.369707

                             ****ORCA TERMINATED NORMALLY****
TOTAL RUN TIME: 0 days 0 hours 1 minutes 35 seconds 328 msec
