                         Program Version 4.1.2  - RELEASE  -
|  1> #Run DFT-D3 single point of the dimer
|  2> ! wB97X-D3 def2-TZVP TIGHTSCF CHELPG PMODEL PAL8
|  3>
|  4> %base "20-134_DFT_AB"
|  5>
|  6> %scf
|  7> MaxIter 1000
|  8> end
|  9>
| 10> * xyz 0 1
| 11>   C                      2.644582             -4.496149            4.921701
| 12>   O                      1.571882             -5.465876            5.016327
| 13>   H                      0.734321             -5.043278            5.354497
| 14>   H                      3.257729             -4.554362            5.857195
| 15>   H                      3.420873             -4.747145            4.172869
| 16>   H                      2.283139             -3.498105            4.678804
| 17>   C                      -1.246376            -6.785112            3.235569
| 18>   O                      -1.731775            -5.723574            2.361640
| 19>   H                      -2.029969            -6.162378            1.487465
| 20>   H                      -1.333332            -7.757998            2.824304
| 21>   H                      -0.201581            -6.541920            3.488338
| 22>   H                      -1.815348            -6.841643            4.134731
| 23> *
| 24>
| 25> #Run DFT-D3 single point of the molecule with dimer basis set
| 26> $new_job
| 27> %base "20-134_DFT_A"
| 28> ! wB97X-D3 def2-TZVP TIGHTSCF CHELPG PMODEL
| 29>
| 30> %scf
| 31> MaxIter 1000
| 32> end
| 33>
| 34> * xyz 0 1
| 35>   C                      2.644582             -4.496149            4.921701
| 36>   O                      1.571882             -5.465876            5.016327
| 37>   H                      0.734321             -5.043278            5.354497
| 38>   H                      3.257729             -4.554362            5.857195
| 39>   H                      3.420873             -4.747145            4.172869
| 40>   H                      2.283139             -3.498105            4.678804
| 41>   C                    : -1.246376            -6.785112            3.235569
| 42>   O                    : -1.731775            -5.723574            2.361640
| 43>   H                    : -2.029969            -6.162378            1.487465
| 44>   H                    : -1.333332            -7.757998            2.824304
| 45>   H                    : -0.201581            -6.541920            3.488338
| 46>   H                    : -1.815348            -6.841643            4.134731
| 47> *
| 48>
| 49> #Run DFT-D3 single point of the particle with dimer basis set
| 50> $new_job
| 51> %base "20-134_DFT_B"
| 52> ! wB97X-D3 def2-TZVP TIGHTSCF CHELPG PMODEL
| 53>
| 54> %scf
| 55> MaxIter 1000
| 56> end
| 57>
| 58> * xyz 0 1
| 59>   C                    : 2.644582             -4.496149            4.921701
| 60>   O                    : 1.571882             -5.465876            5.016327
| 61>   H                    : 0.734321             -5.043278            5.354497
| 62>   H                    : 3.257729             -4.554362            5.857195
| 63>   H                    : 3.420873             -4.747145            4.172869
| 64>   H                    : 2.283139             -3.498105            4.678804
| 65>   C                      -1.246376            -6.785112            3.235569
| 66>   O                      -1.731775            -5.723574            2.361640
| 67>   H                      -2.029969            -6.162378            1.487465
| 68>   H                      -1.333332            -7.757998            2.824304
| 69>   H                      -0.201581            -6.541920            3.488338
| 70>   H                      -1.815348            -6.841643            4.134731
| 71> *
| 72>
| 73>                          ****END OF INPUT****
 Total Charge           Charge          ....    0
 Multiplicity           Mult            ....    1
 Number of Electrons    NEL             ....   36
Dispersion correction           -0.001386223
FINAL SINGLE POINT ENERGY      -231.461169733513
Dispersion correction           -0.000278783
FINAL SINGLE POINT ENERGY      -115.730146028645

CARTESIAN COORDINATES (ANGSTROEM)
---------------------------------
  C      2.644582   -4.496149    4.921701
  O      1.571882   -5.465876    5.016327
  H      0.734321   -5.043278    5.354497
  H      3.257729   -4.554362    5.857195
  H      3.420873   -4.747145    4.172869
  H      2.283139   -3.498105    4.678804
  C     -1.246376   -6.785112    3.235569
  O     -1.731775   -5.723574    2.361640
  H     -2.029969   -6.162378    1.487465
  H     -1.333332   -7.757998    2.824304
  H     -0.201581   -6.541920    3.488338
  H     -1.815348   -6.841643    4.134731

 Multiplicity           Mult            ....    1
 Number of Electrons    NEL             ....   18
 Basis Dimension        Dim             ....  172

ORBITAL ENERGIES
----------------

  NO   OCC          E(Eh)            E(eV)
   0   2.0000     -19.234120      -523.3870
   1   2.0000     -10.309754      -280.5427
   2   2.0000      -1.111146       -30.2358
   3   2.0000      -0.797041       -21.6886
   4   2.0000      -0.599973       -16.3261
   5   2.0000      -0.536236       -14.5917
   6   2.0000      -0.518429       -14.1072
   7   2.0000      -0.438377       -11.9288
   8   2.0000      -0.372226       -10.1288
   9   0.0000       0.088304         2.4029
  10   0.0000       0.108330         2.9478
  11   0.0000       0.147214         4.0059
  12   0.0000       0.177020         4.8170
  13   0.0000       0.186166         5.0658

MULLIKEN ATOMIC CHARGES
-----------------------
   0 C :    0.000060
   1 O :    0.000811
   2 H :    0.000196
   3 H :    0.000008
   4 H :   -0.000085
   5 H :   -0.000017
   6 C :   -0.174570
   7 O :   -0.486403
   8 H :    0.317301
   9 H :    0.116573
  10 H :    0.112589
  11 H :    0.113536
Sum of atomic charges:   -0.0000000

LOEWDIN ATOMIC CHARGES
----------------------
   0 C :   -0.000439
   1 O :   -0.004580
   2 H :   -0.002020
   3 H :   -0.000009
   4 H :   -0.000026
   5 H :   -0.000011
   6 C :   -0.351900
   7 O :   -0.135551
   8 H :    0.200048
   9 H :    0.090607
  10 H :    0.107752
  11 H :    0.096129

  Mayer bond orders larger than 0.1
B(  6-C ,  7-O ) :   1.0078 B(  6-C ,  9-H ) :   0.9786 B(  6-C , 10-H ) :   0.9767
B(  6-C , 11-H ) :   0.9740 B(  7-O ,  8-H ) :   0.8944

Dispersion correction           -0.000264318
FINAL SINGLE POINT ENERGY      -115.728985840127

DIPOLE MOMENT
-------------
                                X             Y             Z
Electronic contribution:     -0.58144       1.37641      -0.98048
Nuclear contribution   :      0.58240      -2.11523       0.80532
                        -----------------------------------------
Total Dipole Moment    :      0.00096      -0.73882      -0.17516
                        -----------------------------------------
Magnitude (a.u.)       :      0.75930
Magnitude (Debye)      :      1.92999

Rotational constants in cm-1:     4.288800     0.791516     0.761643
Rotational constants in MHz : 128574.996837 23729.066839 22833.468504

                             ****ORCA TERMINATED NORMALLY****
TOTAL RUN TIME: 0 days 0 hours 0 minutes 54 seconds 599 msec
