                         Program Version 4.1.2  - RELEASE  -
|  1> #Run DFT-D3 single point of the dimer
|  2> ! wB97X-D3 def2-TZVP TIGHTSCF CHELPG PMODEL PAL8
|  3>
|  4> %base "5-35_DFT_AB"
|  5>
|  6> %scf
|  7> MaxIter 1000
|  8> end
|  9>
| 10> * xyz 0 1
| 11>   C                      0.049032             -10.783737           -3.547147
| 12>   O                      -1.245113            -10.968864           -2.996254
| 13>   H                      -1.364851            -11.804296           -2.480069
| 14>   H                      0.119904             -9.931125            -4.234255
| 15>   H                      0.661525             -10.373009           -2.824909
| 16>   H                      0.387264             -11.742814           -4.004112
| 17>   C                      2.770674             -11.001014           -7.496947
| 18>   O                      1.885739             -10.686951           -6.429571
| 19>   H                      1.847713             -11.404450           -5.817277
| 20>   H                      2.872721             -12.018237           -7.737227
| 21>   H                      2.463922             -10.638104           -8.449007
| 22>   H                      3.724667             -10.506499           -7.250203
| 23> *
| 24>
| 25> #Run DFT-D3 single point of the molecule with dimer basis set
| 26> $new_job
| 27> %base "5-35_DFT_A"
| 28> ! wB97X-D3 def2-TZVP TIGHTSCF CHELPG PMODEL
| 29>
| 30> %scf
| 31> MaxIter 1000
| 32> end
| 33>
| 34> * xyz 0 1
| 35>   C                      0.049032             -10.783737           -3.547147
| 36>   O                      -1.245113            -10.968864           -2.996254
| 37>   H                      -1.364851            -11.804296           -2.480069
| 38>   H                      0.119904             -9.931125            -4.234255
| 39>   H                      0.661525             -10.373009           -2.824909
| 40>   H                      0.387264             -11.742814           -4.004112
| 41>   C                    : 2.770674             -11.001014           -7.496947
| 42>   O                    : 1.885739             -10.686951           -6.429571
| 43>   H                    : 1.847713             -11.404450           -5.817277
| 44>   H                    : 2.872721             -12.018237           -7.737227
| 45>   H                    : 2.463922             -10.638104           -8.449007
| 46>   H                    : 3.724667             -10.506499           -7.250203
| 47> *
| 48>
| 49> #Run DFT-D3 single point of the particle with dimer basis set
| 50> $new_job
| 51> %base "5-35_DFT_B"
| 52> ! wB97X-D3 def2-TZVP TIGHTSCF CHELPG PMODEL
| 53>
| 54> %scf
| 55> MaxIter 1000
| 56> end
| 57>
| 58> * xyz 0 1
| 59>   C                    : 0.049032             -10.783737           -3.547147
| 60>   O                    : -1.245113            -10.968864           -2.996254
| 61>   H                    : -1.364851            -11.804296           -2.480069
| 62>   H                    : 0.119904             -9.931125            -4.234255
| 63>   H                    : 0.661525             -10.373009           -2.824909
| 64>   H                    : 0.387264             -11.742814           -4.004112
| 65>   C                      2.770674             -11.001014           -7.496947
| 66>   O                      1.885739             -10.686951           -6.429571
| 67>   H                      1.847713             -11.404450           -5.817277
| 68>   H                      2.872721             -12.018237           -7.737227
| 69>   H                      2.463922             -10.638104           -8.449007
| 70>   H                      3.724667             -10.506499           -7.250203
| 71> *
| 72>
| 73>                          ****END OF INPUT****
 Total Charge           Charge          ....    0
 Multiplicity           Mult            ....    1
 Number of Electrons    NEL             ....   36
Dispersion correction           -0.001414144
FINAL SINGLE POINT ENERGY      -231.454548162527
Dispersion correction           -0.000251193
FINAL SINGLE POINT ENERGY      -115.724204899488

CARTESIAN COORDINATES (ANGSTROEM)
---------------------------------
  C      0.049032  -10.783737   -3.547147
  O     -1.245113  -10.968864   -2.996254
  H     -1.364851  -11.804296   -2.480069
  H      0.119904   -9.931125   -4.234255
  H      0.661525  -10.373009   -2.824909
  H      0.387264  -11.742814   -4.004112
  C      2.770674  -11.001014   -7.496947
  O      1.885739  -10.686951   -6.429571
  H      1.847713  -11.404450   -5.817277
  H      2.872721  -12.018237   -7.737227
  H      2.463922  -10.638104   -8.449007
  H      3.724667  -10.506499   -7.250203

 Multiplicity           Mult            ....    1
 Number of Electrons    NEL             ....   18
 Basis Dimension        Dim             ....  172

ORBITAL ENERGIES
----------------

  NO   OCC          E(Eh)            E(eV)
   0   2.0000     -19.228111      -523.2235
   1   2.0000     -10.306808      -280.4625
   2   2.0000      -1.135259       -30.8920
   3   2.0000      -0.805695       -21.9241
   4   2.0000      -0.616411       -16.7734
   5   2.0000      -0.544604       -14.8194
   6   2.0000      -0.526400       -14.3241
   7   2.0000      -0.432105       -11.7582
   8   2.0000      -0.374144       -10.1810
   9   0.0000       0.085290         2.3209
  10   0.0000       0.128021         3.4836
  11   0.0000       0.151664         4.1270
  12   0.0000       0.180531         4.9125
  13   0.0000       0.195247         5.3129

MULLIKEN ATOMIC CHARGES
-----------------------
   0 C :   -0.001465
   1 O :    0.000057
   2 H :    0.000010
   3 H :   -0.002803
   4 H :    0.000143
   5 H :   -0.000941
   6 C :   -0.162937
   7 O :   -0.473672
   8 H :    0.316464
   9 H :    0.109872
  10 H :    0.110048
  11 H :    0.105225
Sum of atomic charges:    0.0000000

LOEWDIN ATOMIC CHARGES
----------------------
   0 C :   -0.006167
   1 O :   -0.000043
   2 H :   -0.000009
   3 H :   -0.003300
   4 H :   -0.000093
   5 H :   -0.002474
   6 C :   -0.371253
   7 O :   -0.068644
   8 H :    0.160522
   9 H :    0.089152
  10 H :    0.099337
  11 H :    0.102972

  Mayer bond orders larger than 0.1
B(  6-C ,  7-O ) :   1.0002 B(  6-C ,  9-H ) :   0.9752 B(  6-C , 10-H ) :   0.9727
B(  6-C , 11-H ) :   0.9873 B(  7-O ,  8-H ) :   0.8999

Dispersion correction           -0.000250237
FINAL SINGLE POINT ENERGY      -115.729925038302

DIPOLE MOMENT
-------------
                                X             Y             Z
Electronic contribution:     -1.18587       0.42428       1.31622
Nuclear contribution   :      1.50927      -1.04782      -1.39043
                        -----------------------------------------
Total Dipole Moment    :      0.32340      -0.62354      -0.07421
                        -----------------------------------------
Magnitude (a.u.)       :      0.70633
Magnitude (Debye)      :      1.79534

Rotational constants in cm-1:     4.579498     0.815045     0.798277
Rotational constants in MHz : 137289.887917 24434.442209 23931.746004

                             ****ORCA TERMINATED NORMALLY****
TOTAL RUN TIME: 0 days 0 hours 0 minutes 55 seconds 537 msec
