                         Program Version 4.1.2  - RELEASE  -
|  1> #Run DFT-D3 single point of the dimer
|  2> ! wB97X-D3 def2-TZVP TIGHTSCF CHELPG PMODEL PAL8
|  3>
|  4> %base "21-50_DFT_AB"
|  5>
|  6> %scf
|  7> MaxIter 1000
|  8> end
|  9>
| 10> * xyz 0 1
| 11>   C                      10.424689            7.607292             11.237565
| 12>   O                      8.987239             7.684693             11.242529
| 13>   H                      8.522733             6.897502             11.639982
| 14>   H                      10.849357            6.670310             10.831125
| 15>   H                      10.787197            8.526686             10.749590
| 16>   H                      10.760765            7.762584             12.219175
| 17>   C                      5.849089             5.190941             8.767723
| 18>   O                      4.550791             5.140373             9.206326
| 19>   H                      4.169133             6.010848             9.327686
| 20>   H                      6.534993             5.393492             9.597090
| 21>   H                      6.229892             4.328461             8.286398
| 22>   H                      6.007129             6.055441             8.094881
| 23> *
| 24>
| 25> #Run DFT-D3 single point of the molecule with dimer basis set
| 26> $new_job
| 27> %base "21-50_DFT_A"
| 28> ! wB97X-D3 def2-TZVP TIGHTSCF CHELPG PMODEL
| 29>
| 30> %scf
| 31> MaxIter 1000
| 32> end
| 33>
| 34> * xyz 0 1
| 35>   C                      10.424689            7.607292             11.237565
| 36>   O                      8.987239             7.684693             11.242529
| 37>   H                      8.522733             6.897502             11.639982
| 38>   H                      10.849357            6.670310             10.831125
| 39>   H                      10.787197            8.526686             10.749590
| 40>   H                      10.760765            7.762584             12.219175
| 41>   C                    : 5.849089             5.190941             8.767723
| 42>   O                    : 4.550791             5.140373             9.206326
| 43>   H                    : 4.169133             6.010848             9.327686
| 44>   H                    : 6.534993             5.393492             9.597090
| 45>   H                    : 6.229892             4.328461             8.286398
| 46>   H                    : 6.007129             6.055441             8.094881
| 47> *
| 48>
| 49> #Run DFT-D3 single point of the particle with dimer basis set
| 50> $new_job
| 51> %base "21-50_DFT_B"
| 52> ! wB97X-D3 def2-TZVP TIGHTSCF CHELPG PMODEL
| 53>
| 54> %scf
| 55> MaxIter 1000
| 56> end
| 57>
| 58> * xyz 0 1
| 59>   C                    : 10.424689            7.607292             11.237565
| 60>   O                    : 8.987239             7.684693             11.242529
| 61>   H                    : 8.522733             6.897502             11.639982
| 62>   H                    : 10.849357            6.670310             10.831125
| 63>   H                    : 10.787197            8.526686             10.749590
| 64>   H                    : 10.760765            7.762584             12.219175
| 65>   C                      5.849089             5.190941             8.767723
| 66>   O                      4.550791             5.140373             9.206326
| 67>   H                      4.169133             6.010848             9.327686
| 68>   H                      6.534993             5.393492             9.597090
| 69>   H                      6.229892             4.328461             8.286398
| 70>   H                      6.007129             6.055441             8.094881
| 71> *
| 72>
| 73>                          ****END OF INPUT****
 Total Charge           Charge          ....    0
 Multiplicity           Mult            ....    1
 Number of Electrons    NEL             ....   36
Dispersion correction           -0.000825458
FINAL SINGLE POINT ENERGY      -231.462383004608
Dispersion correction           -0.000269676
FINAL SINGLE POINT ENERGY      -115.729845653834

CARTESIAN COORDINATES (ANGSTROEM)
---------------------------------
  C     10.424689    7.607292   11.237565
  O      8.987239    7.684693   11.242529
  H      8.522733    6.897502   11.639982
  H     10.849357    6.670310   10.831125
  H     10.787197    8.526686   10.749590
  H     10.760765    7.762584   12.219175
  C      5.849089    5.190941    8.767723
  O      4.550791    5.140373    9.206326
  H      4.169133    6.010848    9.327686
  H      6.534993    5.393492    9.597090
  H      6.229892    4.328461    8.286398
  H      6.007129    6.055441    8.094881

 Multiplicity           Mult            ....    1
 Number of Electrons    NEL             ....   18
 Basis Dimension        Dim             ....  172

ORBITAL ENERGIES
----------------

  NO   OCC          E(Eh)            E(eV)
   0   2.0000     -19.228599      -523.2368
   1   2.0000     -10.307684      -280.4864
   2   2.0000      -1.147520       -31.2256
   3   2.0000      -0.799287       -21.7497
   4   2.0000      -0.622323       -16.9343
   5   2.0000      -0.544654       -14.8208
   6   2.0000      -0.538109       -14.6427
   7   2.0000      -0.426371       -11.6022
   8   2.0000      -0.367731       -10.0065
   9   0.0000       0.083930         2.2839
  10   0.0000       0.114326         3.1110
  11   0.0000       0.144109         3.9214
  12   0.0000       0.172326         4.6892
  13   0.0000       0.195350         5.3157

MULLIKEN ATOMIC CHARGES
-----------------------
   0 C :   -0.000044
   1 O :    0.000004
   2 H :   -0.000219
   3 H :   -0.000011
   4 H :    0.000002
   5 H :   -0.000001
   6 C :   -0.152165
   7 O :   -0.476658
   8 H :    0.322886
   9 H :    0.092065
  10 H :    0.121170
  11 H :    0.092971
Sum of atomic charges:   -0.0000000

LOEWDIN ATOMIC CHARGES
----------------------
   0 C :   -0.000030
   1 O :   -0.000137
   2 H :   -0.000843
   3 H :   -0.000005
   4 H :   -0.000000
   5 H :   -0.000000
   6 C :   -0.414383
   7 O :   -0.045798
   8 H :    0.173005
   9 H :    0.092767
  10 H :    0.098941
  11 H :    0.096483

  Mayer bond orders larger than 0.1
B(  6-C ,  7-O ) :   1.0043 B(  6-C ,  9-H ) :   0.9791 B(  6-C , 10-H ) :   0.9695
B(  6-C , 11-H ) :   0.9880 B(  7-O ,  8-H ) :   0.8914

Dispersion correction           -0.000231622
FINAL SINGLE POINT ENERGY      -115.731805753741

DIPOLE MOMENT
-------------
                                X             Y             Z
Electronic contribution:     -1.80573      -0.34901       0.52607
Nuclear contribution   :      2.04999       0.93410      -0.62584
                        -----------------------------------------
Total Dipole Moment    :      0.24426       0.58509      -0.09978
                        -----------------------------------------
Magnitude (a.u.)       :      0.64183
Magnitude (Debye)      :      1.63140

Rotational constants in cm-1:     4.512820     0.863198     0.830015
Rotational constants in MHz : 135290.946175 25878.027597 24883.224914

                             ****ORCA TERMINATED NORMALLY****
TOTAL RUN TIME: 0 days 0 hours 0 minutes 59 seconds 473 msec
