                         Program Version 4.1.2  - RELEASE  -
|  1> #Run DFT-D3 single point of the dimer
|  2> ! wB97X-D3 def2-TZVP TIGHTSCF  CHELPG PAL8
|  3>
|  4> %base "162_charges"
|  5>
|  6> %scf
|  7> MaxIter 1000
|  8> end
|  9> %output
| 10>   Print[ P_Mayer ] 1
| 11>   Print[ P_NatPop ] 1
| 12>   Print[ P_Hirshfeld ] 1
| 13>   Print[ P_Mulliken ] 1
| 14>   Print [ P_Loewdin ] 1
| 15> end
| 16>
| 17> * xyz 0 1
| 18>   C                      5.772052             1.106759             9.610482
| 19>   O                      5.036424             2.129037             9.001671
| 20>   H                      5.389032             3.030605             9.206275
| 21>   H                      6.110569             1.497660             10.567479
| 22>   H                      5.177468             0.195104             9.759879
| 23>   H                      6.640959             0.849236             9.025736
| 24> *
| 25>
| 26>                          ****END OF INPUT****

CARTESIAN COORDINATES (ANGSTROEM)
---------------------------------
  C      5.772052    1.106759    9.610482
  O      5.036424    2.129037    9.001671
  H      5.389032    3.030605    9.206275
  H      6.110569    1.497660   10.567479
  H      5.177468    0.195104    9.759879
  H      6.640959    0.849236    9.025736

 Total Charge           Charge          ....    0
 Multiplicity           Mult            ....    1
 Number of Electrons    NEL             ....   18
 Basis Dimension        Dim             ....   86

ORBITAL ENERGIES
----------------

  NO   OCC          E(Eh)            E(eV)
   0   2.0000     -19.227032      -523.1942
   1   2.0000     -10.309781      -280.5434
   2   2.0000      -1.131025       -30.7768
   3   2.0000      -0.793619       -21.5955
   4   2.0000      -0.609284       -16.5795
   5   2.0000      -0.543388       -14.7863
   6   2.0000      -0.534126       -14.5343
   7   2.0000      -0.422651       -11.5009
   8   2.0000      -0.368816       -10.0360
   9   0.0000       0.110676         3.0117
  10   0.0000       0.155801         4.2396
  11   0.0000       0.204103         5.5539
  12   0.0000       0.210448         5.7266
  13   0.0000       0.226502         6.1634

MULLIKEN ATOMIC CHARGES
-----------------------
   0 C :   -0.136881
   1 O :   -0.491443
   2 H :    0.321772
   3 H :    0.092839
   4 H :    0.116348
   5 H :    0.097365
Sum of atomic charges:   -0.0000000

LOEWDIN ATOMIC CHARGES
----------------------
   0 C :   -0.390625
   1 O :   -0.087378
   2 H :    0.186074
   3 H :    0.093800
   4 H :    0.108075
   5 H :    0.090053

  Mayer bond orders larger than 0.1
B(  0-C ,  1-O ) :   0.9983 B(  0-C ,  3-H ) :   0.9925 B(  0-C ,  4-H ) :   0.9705
B(  0-C ,  5-H ) :   0.9746 B(  1-O ,  2-H ) :   0.8886

Dispersion correction           -0.000234207
FINAL SINGLE POINT ENERGY      -115.733089944539

DIPOLE MOMENT
-------------
                                X             Y             Z
Electronic contribution:     -1.03859       1.14009      -0.84344
Nuclear contribution   :      1.56133      -0.96898       1.23253
                        -----------------------------------------
Total Dipole Moment    :      0.52274       0.17111       0.38909
                        -----------------------------------------
Magnitude (a.u.)       :      0.67374
Magnitude (Debye)      :      1.71252

Rotational constants in cm-1:     4.323092     0.844694     0.811096
Rotational constants in MHz : 129603.035554 25323.297323 24316.052628

                             ****ORCA TERMINATED NORMALLY****
TOTAL RUN TIME: 0 days 0 hours 0 minutes 39 seconds 978 msec
