                         Program Version 4.1.2  - RELEASE  -
|  1> #Run DFT-D3 single point of the dimer
|  2> ! wB97X-D3 def2-TZVP TIGHTSCF CHELPG PMODEL PAL8
|  3>
|  4> %base "9-193_DFT_AB"
|  5>
|  6> %scf
|  7> MaxIter 1000
|  8> end
|  9>
| 10> * xyz 0 1
| 11>   C                      -4.842045            7.838323             1.272649
| 12>   O                      -4.123788            7.309092             2.305676
| 13>   H                      -3.199384            7.520210             2.117756
| 14>   H                      -5.833426            7.371464             1.154109
| 15>   H                      -4.977565            8.933817             1.339982
| 16>   H                      -4.219223            7.709401             0.386398
| 17>   C                      -3.237779            9.044362             5.187384
| 18>   O                      -3.133126            9.777949             3.952850
| 19>   H                      -2.940493            9.172445             3.274420
| 20>   H                      -2.838870            9.574905             6.057615
| 21>   H                      -4.240134            8.838847             5.502573
| 22>   H                      -2.712351            8.049875             5.136452
| 23> *
| 24>
| 25> #Run DFT-D3 single point of the molecule with dimer basis set
| 26> $new_job
| 27> %base "9-193_DFT_A"
| 28> ! wB97X-D3 def2-TZVP TIGHTSCF CHELPG PMODEL
| 29>
| 30> %scf
| 31> MaxIter 1000
| 32> end
| 33>
| 34> * xyz 0 1
| 35>   C                      -4.842045            7.838323             1.272649
| 36>   O                      -4.123788            7.309092             2.305676
| 37>   H                      -3.199384            7.520210             2.117756
| 38>   H                      -5.833426            7.371464             1.154109
| 39>   H                      -4.977565            8.933817             1.339982
| 40>   H                      -4.219223            7.709401             0.386398
| 41>   C                    : -3.237779            9.044362             5.187384
| 42>   O                    : -3.133126            9.777949             3.952850
| 43>   H                    : -2.940493            9.172445             3.274420
| 44>   H                    : -2.838870            9.574905             6.057615
| 45>   H                    : -4.240134            8.838847             5.502573
| 46>   H                    : -2.712351            8.049875             5.136452
| 47> *
| 48>
| 49> #Run DFT-D3 single point of the particle with dimer basis set
| 50> $new_job
| 51> %base "9-193_DFT_B"
| 52> ! wB97X-D3 def2-TZVP TIGHTSCF CHELPG PMODEL
| 53>
| 54> %scf
| 55> MaxIter 1000
| 56> end
| 57>
| 58> * xyz 0 1
| 59>   C                    : -4.842045            7.838323             1.272649
| 60>   O                    : -4.123788            7.309092             2.305676
| 61>   H                    : -3.199384            7.520210             2.117756
| 62>   H                    : -5.833426            7.371464             1.154109
| 63>   H                    : -4.977565            8.933817             1.339982
| 64>   H                    : -4.219223            7.709401             0.386398
| 65>   C                      -3.237779            9.044362             5.187384
| 66>   O                      -3.133126            9.777949             3.952850
| 67>   H                      -2.940493            9.172445             3.274420
| 68>   H                      -2.838870            9.574905             6.057615
| 69>   H                      -4.240134            8.838847             5.502573
| 70>   H                      -2.712351            8.049875             5.136452
| 71> *
| 72>
| 73>                          ****END OF INPUT****
 Total Charge           Charge          ....    0
 Multiplicity           Mult            ....    1
 Number of Electrons    NEL             ....   36
Dispersion correction           -0.001977800
FINAL SINGLE POINT ENERGY      -231.463457800031
Dispersion correction           -0.000210007
FINAL SINGLE POINT ENERGY      -115.732059919888

CARTESIAN COORDINATES (ANGSTROEM)
---------------------------------
  C     -4.842045    7.838323    1.272649
  O     -4.123788    7.309092    2.305676
  H     -3.199384    7.520210    2.117756
  H     -5.833426    7.371464    1.154109
  H     -4.977565    8.933817    1.339982
  H     -4.219223    7.709401    0.386398
  C     -3.237779    9.044362    5.187384
  O     -3.133126    9.777949    3.952850
  H     -2.940493    9.172445    3.274420
  H     -2.838870    9.574905    6.057615
  H     -4.240134    8.838847    5.502573
  H     -2.712351    8.049875    5.136452

 Multiplicity           Mult            ....    1
 Number of Electrons    NEL             ....   18
 Basis Dimension        Dim             ....  172

ORBITAL ENERGIES
----------------

  NO   OCC          E(Eh)            E(eV)
   0   2.0000     -19.231931      -523.3275
   1   2.0000     -10.317570      -280.7554
   2   2.0000      -1.136766       -30.9330
   3   2.0000      -0.801687       -21.8150
   4   2.0000      -0.612211       -16.6591
   5   2.0000      -0.536195       -14.5906
   6   2.0000      -0.528584       -14.3835
   7   2.0000      -0.436653       -11.8819
   8   2.0000      -0.377562       -10.2740
   9   0.0000       0.075998         2.0680
  10   0.0000       0.129016         3.5107
  11   0.0000       0.149526         4.0688
  12   0.0000       0.177762         4.8371
  13   0.0000       0.191965         5.2236

MULLIKEN ATOMIC CHARGES
-----------------------
   0 C :   -0.002067
   1 O :   -0.002629
   2 H :   -0.001650
   3 H :    0.000002
   4 H :   -0.002632
   5 H :    0.000239
   6 C :   -0.175839
   7 O :   -0.463731
   8 H :    0.313000
   9 H :    0.121117
  10 H :    0.108549
  11 H :    0.105642
Sum of atomic charges:    0.0000000

LOEWDIN ATOMIC CHARGES
----------------------
   0 C :   -0.003928
   1 O :   -0.005578
   2 H :   -0.005247
   3 H :   -0.000043
   4 H :   -0.001956
   5 H :   -0.000037
   6 C :   -0.368393
   7 O :   -0.065711
   8 H :    0.149181
   9 H :    0.105631
  10 H :    0.091644
  11 H :    0.104435

  Mayer bond orders larger than 0.1
B(  6-C ,  7-O ) :   0.9998 B(  6-C ,  9-H ) :   0.9761 B(  6-C , 10-H ) :   0.9735
B(  6-C , 11-H ) :   0.9831 B(  7-O ,  8-H ) :   0.9099

Dispersion correction           -0.000270125
FINAL SINGLE POINT ENERGY      -115.732236349117

DIPOLE MOMENT
-------------
                                X             Y             Z
Electronic contribution:      0.09787       1.12228      -1.57672
Nuclear contribution   :     -0.01560      -1.81289       1.66602
                        -----------------------------------------
Total Dipole Moment    :      0.08227      -0.69061       0.08930
                        -----------------------------------------
Magnitude (a.u.)       :      0.70120
Magnitude (Debye)      :      1.78230

Rotational constants in cm-1:     4.470845     0.799879     0.766356
Rotational constants in MHz : 134032.575708 23979.773457 22974.787040

                             ****ORCA TERMINATED NORMALLY****
TOTAL RUN TIME: 0 days 0 hours 0 minutes 45 seconds 765 msec
