                         Program Version 4.1.2  - RELEASE  -
|  1> #Run DFT-D3 single point of the dimer
|  2> ! wB97X-D3 def2-TZVP TIGHTSCF  CHELPG PAL8
|  3>
|  4> %base "45_charges"
|  5>
|  6> %scf
|  7> MaxIter 1000
|  8> end
|  9> %output
| 10>   Print[ P_Mayer ] 1
| 11>   Print[ P_NatPop ] 1
| 12>   Print[ P_Hirshfeld ] 1
| 13>   Print[ P_Mulliken ] 1
| 14>   Print [ P_Loewdin ] 1
| 15> end
| 16>
| 17> * xyz 0 1
| 18>   C                      8.824784             7.580124             4.204947
| 19>   O                      8.778719             7.824527             2.733379
| 20>   H                      8.324615             8.679605             2.708276
| 21>   H                      7.882122             7.172702             4.582085
| 22>   H                      9.611679             6.982661             4.496689
| 23>   H                      9.031327             8.561884             4.760092
| 24> *
| 25>
| 26>                          ****END OF INPUT****

CARTESIAN COORDINATES (ANGSTROEM)
---------------------------------
  C      8.824784    7.580124    4.204947
  O      8.778719    7.824527    2.733379
  H      8.324615    8.679605    2.708276
  H      7.882122    7.172702    4.582085
  H      9.611679    6.982661    4.496689
  H      9.031327    8.561884    4.760092

 Total Charge           Charge          ....    0
 Multiplicity           Mult            ....    1
 Number of Electrons    NEL             ....   18
 Basis Dimension        Dim             ....   86

ORBITAL ENERGIES
----------------

  NO   OCC          E(Eh)            E(eV)
   0   2.0000     -19.234229      -523.3900
   1   2.0000     -10.319413      -280.8055
   2   2.0000      -1.117192       -30.4003
   3   2.0000      -0.799838       -21.7647
   4   2.0000      -0.591806       -16.1039
   5   2.0000      -0.540908       -14.7188
   6   2.0000      -0.519916       -14.1476
   7   2.0000      -0.442582       -12.0433
   8   2.0000      -0.378603       -10.3023
   9   0.0000       0.112085         3.0500
  10   0.0000       0.147710         4.0194
  11   0.0000       0.194325         5.2879
  12   0.0000       0.211493         5.7550
  13   0.0000       0.216348         5.8871

MULLIKEN ATOMIC CHARGES
-----------------------
   0 C :   -0.196095
   1 O :   -0.471708
   2 H :    0.314595
   3 H :    0.113503
   4 H :    0.134883
   5 H :    0.104823
Sum of atomic charges:   -0.0000000

LOEWDIN ATOMIC CHARGES
----------------------
   0 C :   -0.334210
   1 O :   -0.132132
   2 H :    0.171165
   3 H :    0.097526
   4 H :    0.089710
   5 H :    0.107941

  Mayer bond orders larger than 0.1
B(  0-C ,  1-O ) :   0.9992 B(  0-C ,  3-H ) :   0.9704 B(  0-C ,  4-H ) :   0.9729
B(  0-C ,  5-H ) :   0.9816 B(  1-O ,  2-H ) :   0.9044

Dispersion correction           -0.000265059
FINAL SINGLE POINT ENERGY      -115.726995810847

DIPOLE MOMENT
-------------
                                X             Y             Z
Electronic contribution:      0.04897      -0.01312      -1.90987
Nuclear contribution   :     -0.28237       0.42609       2.52302
                        -----------------------------------------
Total Dipole Moment    :     -0.23340       0.41298       0.61315
                        -----------------------------------------
Magnitude (a.u.)       :      0.77523
Magnitude (Debye)      :      1.97047

Rotational constants in cm-1:     4.264015     0.761710     0.739699
Rotational constants in MHz : 127831.947660 22835.503564 22175.622939

                             ****ORCA TERMINATED NORMALLY****
TOTAL RUN TIME: 0 days 0 hours 0 minutes 40 seconds 705 msec
