                         Program Version 4.1.2  - RELEASE  -
|  1> #Run DFT-D3 single point of the dimer
|  2> ! wB97X-D3 def2-TZVP TIGHTSCF CHELPG PMODEL PAL8
|  3>
|  4> %base "5-187_DFT_AB"
|  5>
|  6> %scf
|  7> MaxIter 1000
|  8> end
|  9>
| 10> * xyz 0 1
| 11>   C                      6.841558             -4.279358            3.593163
| 12>   O                      6.967058             -5.324514            2.727259
| 13>   H                      6.968686             -6.154978            3.242085
| 14>   H                      6.939423             -3.275139            3.211090
| 15>   H                      5.826904             -4.372985            4.033386
| 16>   H                      7.520350             -4.294207            4.443900
| 17>   C                      6.668036             -5.455190            -1.030907
| 18>   O                      6.837075             -4.507155            -0.019168
| 19>   H                      7.422544             -4.843241            0.644759
| 20>   H                      7.637286             -5.706751            -1.547188
| 21>   H                      6.155965             -6.319616            -0.667322
| 22>   H                      6.026018             -5.035849            -1.862106
| 23> *
| 24>
| 25> #Run DFT-D3 single point of the molecule with dimer basis set
| 26> $new_job
| 27> %base "5-187_DFT_A"
| 28> ! wB97X-D3 def2-TZVP TIGHTSCF CHELPG PMODEL
| 29>
| 30> %scf
| 31> MaxIter 1000
| 32> end
| 33>
| 34> * xyz 0 1
| 35>   C                      6.841558             -4.279358            3.593163
| 36>   O                      6.967058             -5.324514            2.727259
| 37>   H                      6.968686             -6.154978            3.242085
| 38>   H                      6.939423             -3.275139            3.211090
| 39>   H                      5.826904             -4.372985            4.033386
| 40>   H                      7.520350             -4.294207            4.443900
| 41>   C                    : 6.668036             -5.455190            -1.030907
| 42>   O                    : 6.837075             -4.507155            -0.019168
| 43>   H                    : 7.422544             -4.843241            0.644759
| 44>   H                    : 7.637286             -5.706751            -1.547188
| 45>   H                    : 6.155965             -6.319616            -0.667322
| 46>   H                    : 6.026018             -5.035849            -1.862106
| 47> *
| 48>
| 49> #Run DFT-D3 single point of the particle with dimer basis set
| 50> $new_job
| 51> %base "5-187_DFT_B"
| 52> ! wB97X-D3 def2-TZVP TIGHTSCF CHELPG PMODEL
| 53>
| 54> %scf
| 55> MaxIter 1000
| 56> end
| 57>
| 58> * xyz 0 1
| 59>   C                    : 6.841558             -4.279358            3.593163
| 60>   O                    : 6.967058             -5.324514            2.727259
| 61>   H                    : 6.968686             -6.154978            3.242085
| 62>   H                    : 6.939423             -3.275139            3.211090
| 63>   H                    : 5.826904             -4.372985            4.033386
| 64>   H                    : 7.520350             -4.294207            4.443900
| 65>   C                      6.668036             -5.455190            -1.030907
| 66>   O                      6.837075             -4.507155            -0.019168
| 67>   H                      7.422544             -4.843241            0.644759
| 68>   H                      7.637286             -5.706751            -1.547188
| 69>   H                      6.155965             -6.319616            -0.667322
| 70>   H                      6.026018             -5.035849            -1.862106
| 71> *
| 72>
| 73>                          ****END OF INPUT****
 Total Charge           Charge          ....    0
 Multiplicity           Mult            ....    1
 Number of Electrons    NEL             ....   36
Dispersion correction           -0.001542944
FINAL SINGLE POINT ENERGY      -231.468906206446
Dispersion correction           -0.000218884
FINAL SINGLE POINT ENERGY      -115.729915249302

CARTESIAN COORDINATES (ANGSTROEM)
---------------------------------
  C      6.841558   -4.279358    3.593163
  O      6.967058   -5.324514    2.727259
  H      6.968686   -6.154978    3.242085
  H      6.939423   -3.275139    3.211090
  H      5.826904   -4.372985    4.033386
  H      7.520350   -4.294207    4.443900
  C      6.668036   -5.455190   -1.030907
  O      6.837075   -4.507155   -0.019168
  H      7.422544   -4.843241    0.644759
  H      7.637286   -5.706751   -1.547188
  H      6.155965   -6.319616   -0.667322
  H      6.026018   -5.035849   -1.862106

 Multiplicity           Mult            ....    1
 Number of Electrons    NEL             ....   18
 Basis Dimension        Dim             ....  172

ORBITAL ENERGIES
----------------

  NO   OCC          E(Eh)            E(eV)
   0   2.0000     -19.230152      -523.2791
   1   2.0000     -10.316274      -280.7201
   2   2.0000      -1.143951       -31.1285
   3   2.0000      -0.794574       -21.6215
   4   2.0000      -0.613975       -16.7071
   5   2.0000      -0.549719       -14.9586
   6   2.0000      -0.526144       -14.3171
   7   2.0000      -0.424844       -11.5606
   8   2.0000      -0.376201       -10.2369
   9   0.0000       0.078800         2.1442
  10   0.0000       0.128251         3.4899
  11   0.0000       0.154721         4.2102
  12   0.0000       0.167152         4.5484
  13   0.0000       0.196484         5.3466

MULLIKEN ATOMIC CHARGES
-----------------------
   0 C :   -0.005114
   1 O :   -0.003506
   2 H :   -0.000174
   3 H :   -0.000524
   4 H :    0.000430
   5 H :    0.000030
   6 C :   -0.164548
   7 O :   -0.461643
   8 H :    0.315789
   9 H :    0.097580
  10 H :    0.105438
  11 H :    0.116243
Sum of atomic charges:   -0.0000000

LOEWDIN ATOMIC CHARGES
----------------------
   0 C :   -0.004440
   1 O :   -0.013975
   2 H :   -0.000671
   3 H :   -0.000565
   4 H :   -0.000080
   5 H :   -0.000080
   6 C :   -0.402036
   7 O :   -0.046944
   8 H :    0.164929
   9 H :    0.099229
  10 H :    0.088477
  11 H :    0.116157

  Mayer bond orders larger than 0.1
B(  6-C ,  7-O ) :   1.0081 B(  6-C ,  9-H ) :   0.9788 B(  6-C , 10-H ) :   0.9732
B(  6-C , 11-H ) :   0.9719 B(  7-O ,  8-H ) :   0.8973

Dispersion correction           -0.000243364
FINAL SINGLE POINT ENERGY      -115.735042003664

DIPOLE MOMENT
-------------
                                X             Y             Z
Electronic contribution:      0.14174       1.25800       1.33880
Nuclear contribution   :      0.15144      -1.83881      -1.32127
                        -----------------------------------------
Total Dipole Moment    :      0.29318      -0.58081       0.01753
                        -----------------------------------------
Magnitude (a.u.)       :      0.65085
Magnitude (Debye)      :      1.65432

Rotational constants in cm-1:     4.280622     0.837569     0.814355
Rotational constants in MHz : 128329.829200 25109.677417 24413.742674

                             ****ORCA TERMINATED NORMALLY****
TOTAL RUN TIME: 0 days 0 hours 1 minutes 2 seconds 414 msec
