                         Program Version 4.1.2  - RELEASE  -
|  1> #Run DFT-D3 single point of the dimer
|  2> ! wB97X-D3 def2-TZVP TIGHTSCF CHELPG PMODEL PAL8
|  3>
|  4> %base "3-77_DFT_AB"
|  5>
|  6> %scf
|  7> MaxIter 1000
|  8> end
|  9>
| 10> * xyz 0 1
| 11>   C                      -4.944868            -6.379908            -6.736573
| 12>   O                      -6.142319            -5.643729            -6.610150
| 13>   H                      -6.328640            -5.442620            -7.501184
| 14>   H                      -4.130525            -5.985907            -6.044649
| 15>   H                      -5.172011            -7.357734            -6.328079
| 16>   H                      -4.478197            -6.584611            -7.685240
| 17>   C                      -8.821736            -2.244339            -2.772224
| 18>   O                      -7.682576            -2.300097            -3.539446
| 19>   H                      -7.004635            -2.703530            -2.993560
| 20>   H                      -8.519743            -2.124403            -1.693724
| 21>   H                      -9.474472            -1.386204            -3.000536
| 22>   H                      -9.400907            -3.212048            -2.883486
| 23> *
| 24>
| 25> #Run DFT-D3 single point of the molecule with dimer basis set
| 26> $new_job
| 27> %base "3-77_DFT_A"
| 28> ! wB97X-D3 def2-TZVP TIGHTSCF CHELPG PMODEL
| 29>
| 30> %scf
| 31> MaxIter 1000
| 32> end
| 33>
| 34> * xyz 0 1
| 35>   C                      -4.944868            -6.379908            -6.736573
| 36>   O                      -6.142319            -5.643729            -6.610150
| 37>   H                      -6.328640            -5.442620            -7.501184
| 38>   H                      -4.130525            -5.985907            -6.044649
| 39>   H                      -5.172011            -7.357734            -6.328079
| 40>   H                      -4.478197            -6.584611            -7.685240
| 41>   C                    : -8.821736            -2.244339            -2.772224
| 42>   O                    : -7.682576            -2.300097            -3.539446
| 43>   H                    : -7.004635            -2.703530            -2.993560
| 44>   H                    : -8.519743            -2.124403            -1.693724
| 45>   H                    : -9.474472            -1.386204            -3.000536
| 46>   H                    : -9.400907            -3.212048            -2.883486
| 47> *
| 48>
| 49> #Run DFT-D3 single point of the particle with dimer basis set
| 50> $new_job
| 51> %base "3-77_DFT_B"
| 52> ! wB97X-D3 def2-TZVP TIGHTSCF CHELPG PMODEL
| 53>
| 54> %scf
| 55> MaxIter 1000
| 56> end
| 57>
| 58> * xyz 0 1
| 59>   C                    : -4.944868            -6.379908            -6.736573
| 60>   O                    : -6.142319            -5.643729            -6.610150
| 61>   H                    : -6.328640            -5.442620            -7.501184
| 62>   H                    : -4.130525            -5.985907            -6.044649
| 63>   H                    : -5.172011            -7.357734            -6.328079
| 64>   H                    : -4.478197            -6.584611            -7.685240
| 65>   C                      -8.821736            -2.244339            -2.772224
| 66>   O                      -7.682576            -2.300097            -3.539446
| 67>   H                      -7.004635            -2.703530            -2.993560
| 68>   H                      -8.519743            -2.124403            -1.693724
| 69>   H                      -9.474472            -1.386204            -3.000536
| 70>   H                      -9.400907            -3.212048            -2.883486
| 71> *
| 72>
| 73>                          ****END OF INPUT****
 Total Charge           Charge          ....    0
 Multiplicity           Mult            ....    1
 Number of Electrons    NEL             ....   36
Dispersion correction           -0.000592459
FINAL SINGLE POINT ENERGY      -231.458861951546
Dispersion correction           -0.000252383
FINAL SINGLE POINT ENERGY      -115.726728005122

CARTESIAN COORDINATES (ANGSTROEM)
---------------------------------
  C     -4.944868   -6.379908   -6.736573
  O     -6.142319   -5.643729   -6.610150
  H     -6.328640   -5.442620   -7.501184
  H     -4.130525   -5.985907   -6.044649
  H     -5.172011   -7.357734   -6.328079
  H     -4.478197   -6.584611   -7.685240
  C     -8.821736   -2.244339   -2.772224
  O     -7.682576   -2.300097   -3.539446
  H     -7.004635   -2.703530   -2.993560
  H     -8.519743   -2.124403   -1.693724
  H     -9.474472   -1.386204   -3.000536
  H     -9.400907   -3.212048   -2.883486

 Multiplicity           Mult            ....    1
 Number of Electrons    NEL             ....   18
 Basis Dimension        Dim             ....  172

ORBITAL ENERGIES
----------------

  NO   OCC          E(Eh)            E(eV)
   0   2.0000     -19.230124      -523.2783
   1   2.0000     -10.318443      -280.7791
   2   2.0000      -1.151110       -31.3233
   3   2.0000      -0.786675       -21.4065
   4   2.0000      -0.616323       -16.7710
   5   2.0000      -0.544866       -14.8265
   6   2.0000      -0.533873       -14.5274
   7   2.0000      -0.427173       -11.6240
   8   2.0000      -0.370279       -10.0758
   9   0.0000       0.088923         2.4197
  10   0.0000       0.110995         3.0203
  11   0.0000       0.155745         4.2380
  12   0.0000       0.170595         4.6421
  13   0.0000       0.195432         5.3180

MULLIKEN ATOMIC CHARGES
-----------------------
   0 C :   -0.000048
   1 O :   -0.000024
   2 H :   -0.000010
   3 H :    0.000001
   4 H :    0.000003
   5 H :    0.000001
   6 C :   -0.169672
   7 O :   -0.459990
   8 H :    0.319921
   9 H :    0.095285
  10 H :    0.118483
  11 H :    0.096051
Sum of atomic charges:   -0.0000000

LOEWDIN ATOMIC CHARGES
----------------------
   0 C :   -0.000010
   1 O :   -0.000036
   2 H :   -0.000009
   3 H :   -0.000001
   4 H :   -0.000000
   5 H :   -0.000000
   6 C :   -0.425733
   7 O :   -0.051647
   8 H :    0.174678
   9 H :    0.098513
  10 H :    0.105420
  11 H :    0.098825

  Mayer bond orders larger than 0.1
B(  6-C ,  7-O ) :   1.0049 B(  6-C ,  9-H ) :   0.9886 B(  6-C , 10-H ) :   0.9689
B(  6-C , 11-H ) :   0.9731 B(  7-O ,  8-H ) :   0.8971

Dispersion correction           -0.000226704
FINAL SINGLE POINT ENERGY      -115.732395600647

DIPOLE MOMENT
-------------
                                X             Y             Z
Electronic contribution:      1.43451       0.05622      -1.22195
Nuclear contribution   :     -1.39891      -0.26382       1.85617
                        -----------------------------------------
Total Dipole Moment    :      0.03560      -0.20760       0.63422
                        -----------------------------------------
Magnitude (a.u.)       :      0.66828
Magnitude (Debye)      :      1.69864

Rotational constants in cm-1:     4.116941     0.865631     0.838191
Rotational constants in MHz : 123422.773465 25950.957485 25128.348056

                             ****ORCA TERMINATED NORMALLY****
TOTAL RUN TIME: 0 days 0 hours 6 minutes 21 seconds 16 msec
