                         Program Version 4.1.2  - RELEASE  -
|  1> #Run DFT-D3 single point of the dimer
|  2> ! wB97X-D3 def2-TZVP TIGHTSCF CHELPG PMODEL PAL8
|  3>
|  4> %base "2-7_DFT_AB"
|  5>
|  6> %scf
|  7> MaxIter 1000
|  8> end
|  9>
| 10> * xyz 0 1
| 11>   C                      8.949076             -5.978823            1.374421
| 12>   O                      8.061541             -5.195316            2.119433
| 13>   H                      7.149420             -5.531842            2.087189
| 14>   H                      8.545516             -6.842409            0.887766
| 15>   H                      9.373425             -5.345801            0.537664
| 16>   H                      9.797121             -6.359743            1.900939
| 17>   C                      5.969071             -3.405384            -0.265019
| 18>   O                      7.102068             -2.889357            -0.942927
| 19>   H                      7.118643             -1.956619            -0.879665
| 20>   H                      6.277044             -3.784139            0.691122
| 21>   H                      5.188285             -2.625284            -0.197412
| 22>   H                      5.445635             -4.273494            -0.690587
| 23> *
| 24>
| 25> #Run DFT-D3 single point of the molecule with dimer basis set
| 26> $new_job
| 27> %base "2-7_DFT_A"
| 28> ! wB97X-D3 def2-TZVP TIGHTSCF CHELPG PMODEL
| 29>
| 30> %scf
| 31> MaxIter 1000
| 32> end
| 33>
| 34> * xyz 0 1
| 35>   C                      8.949076             -5.978823            1.374421
| 36>   O                      8.061541             -5.195316            2.119433
| 37>   H                      7.149420             -5.531842            2.087189
| 38>   H                      8.545516             -6.842409            0.887766
| 39>   H                      9.373425             -5.345801            0.537664
| 40>   H                      9.797121             -6.359743            1.900939
| 41>   C                    : 5.969071             -3.405384            -0.265019
| 42>   O                    : 7.102068             -2.889357            -0.942927
| 43>   H                    : 7.118643             -1.956619            -0.879665
| 44>   H                    : 6.277044             -3.784139            0.691122
| 45>   H                    : 5.188285             -2.625284            -0.197412
| 46>   H                    : 5.445635             -4.273494            -0.690587
| 47> *
| 48>
| 49> #Run DFT-D3 single point of the particle with dimer basis set
| 50> $new_job
| 51> %base "2-7_DFT_B"
| 52> ! wB97X-D3 def2-TZVP TIGHTSCF CHELPG PMODEL
| 53>
| 54> %scf
| 55> MaxIter 1000
| 56> end
| 57>
| 58> * xyz 0 1
| 59>   C                    : 8.949076             -5.978823            1.374421
| 60>   O                    : 8.061541             -5.195316            2.119433
| 61>   H                    : 7.149420             -5.531842            2.087189
| 62>   H                    : 8.545516             -6.842409            0.887766
| 63>   H                    : 9.373425             -5.345801            0.537664
| 64>   H                    : 9.797121             -6.359743            1.900939
| 65>   C                      5.969071             -3.405384            -0.265019
| 66>   O                      7.102068             -2.889357            -0.942927
| 67>   H                      7.118643             -1.956619            -0.879665
| 68>   H                      6.277044             -3.784139            0.691122
| 69>   H                      5.188285             -2.625284            -0.197412
| 70>   H                      5.445635             -4.273494            -0.690587
| 71> *
| 72>
| 73>                          ****END OF INPUT****
 Total Charge           Charge          ....    0
 Multiplicity           Mult            ....    1
 Number of Electrons    NEL             ....   36
Dispersion correction           -0.001656025
FINAL SINGLE POINT ENERGY      -231.463099159836
Dispersion correction           -0.000265437
FINAL SINGLE POINT ENERGY      -115.731950957230

CARTESIAN COORDINATES (ANGSTROEM)
---------------------------------
  C      8.949076   -5.978823    1.374421
  O      8.061541   -5.195316    2.119433
  H      7.149420   -5.531842    2.087189
  H      8.545516   -6.842409    0.887766
  H      9.373425   -5.345801    0.537664
  H      9.797121   -6.359743    1.900939
  C      5.969071   -3.405384   -0.265019
  O      7.102068   -2.889357   -0.942927
  H      7.118643   -1.956619   -0.879665
  H      6.277044   -3.784139    0.691122
  H      5.188285   -2.625284   -0.197412
  H      5.445635   -4.273494   -0.690587

 Multiplicity           Mult            ....    1
 Number of Electrons    NEL             ....   18
 Basis Dimension        Dim             ....  172

ORBITAL ENERGIES
----------------

  NO   OCC          E(Eh)            E(eV)
   0   2.0000     -19.227457      -523.2057
   1   2.0000     -10.314676      -280.6766
   2   2.0000      -1.138985       -30.9934
   3   2.0000      -0.800726       -21.7889
   4   2.0000      -0.613608       -16.6971
   5   2.0000      -0.544418       -14.8144
   6   2.0000      -0.531463       -14.4618
   7   2.0000      -0.427107       -11.6222
   8   2.0000      -0.373683       -10.1684
   9   0.0000       0.089887         2.4459
  10   0.0000       0.121136         3.2963
  11   0.0000       0.147037         4.0011
  12   0.0000       0.176302         4.7974
  13   0.0000       0.200350         5.4518

MULLIKEN ATOMIC CHARGES
-----------------------
   0 C :    0.001769
   1 O :    0.001183
   2 H :   -0.000960
   3 H :   -0.000158
   4 H :   -0.001914
   5 H :   -0.000000
   6 C :   -0.161257
   7 O :   -0.474099
   8 H :    0.314389
   9 H :    0.103191
  10 H :    0.105573
  11 H :    0.112282
Sum of atomic charges:   -0.0000000

LOEWDIN ATOMIC CHARGES
----------------------
   0 C :   -0.000743
   1 O :   -0.002531
   2 H :   -0.003883
   3 H :   -0.000020
   4 H :   -0.000818
   5 H :   -0.000007
   6 C :   -0.378933
   7 O :   -0.066942
   8 H :    0.153193
   9 H :    0.094742
  10 H :    0.099982
  11 H :    0.105959

  Mayer bond orders larger than 0.1
B(  6-C ,  7-O ) :   1.0013 B(  6-C ,  9-H ) :   0.9780 B(  6-C , 10-H ) :   0.9879
B(  6-C , 11-H ) :   0.9726 B(  7-O ,  8-H ) :   0.9033

Dispersion correction           -0.000251834
FINAL SINGLE POINT ENERGY      -115.730599921362

DIPOLE MOMENT
-------------
                                X             Y             Z
Electronic contribution:      1.52792       0.55952      -0.94310
Nuclear contribution   :     -1.98892      -0.15820       1.25173
                        -----------------------------------------
Total Dipole Moment    :     -0.46100       0.40133       0.30864
                        -----------------------------------------
Magnitude (a.u.)       :      0.68472
Magnitude (Debye)      :      1.74041

Rotational constants in cm-1:     4.489803     0.820950     0.790213
Rotational constants in MHz : 134600.895300 24611.455645 23689.997719

                             ****ORCA TERMINATED NORMALLY****
TOTAL RUN TIME: 0 days 0 hours 6 minutes 0 seconds 714 msec
