                         Program Version 4.1.2  - RELEASE  -
|  1> #Run DFT-D3 single point of the dimer
|  2> ! wB97X-D3 def2-TZVP TIGHTSCF CHELPG PMODEL PAL8
|  3>
|  4> %base "21-120_DFT_AB"
|  5>
|  6> %scf
|  7> MaxIter 1000
|  8> end
|  9>
| 10> * xyz 0 1
| 11>   C                      7.874232             -11.071143           3.966624
| 12>   O                      7.687014             -11.846176           5.116566
| 13>   H                      7.956098             -12.702588           4.813071
| 14>   H                      7.097583             -10.318167           3.915558
| 15>   H                      8.832153             -10.564399           3.880598
| 16>   H                      7.813907             -11.598509           3.043541
| 17>   C                      3.227539             -9.389747            1.845262
| 18>   O                      3.765113             -10.424615           2.663280
| 19>   H                      4.619003             -10.656900           2.268838
| 20>   H                      2.125311             -9.274752            1.876261
| 21>   H                      3.707368             -8.437621            2.131932
| 22>   H                      3.403514             -9.597160            0.761879
| 23> *
| 24>
| 25> #Run DFT-D3 single point of the molecule with dimer basis set
| 26> $new_job
| 27> %base "21-120_DFT_A"
| 28> ! wB97X-D3 def2-TZVP TIGHTSCF CHELPG PMODEL
| 29>
| 30> %scf
| 31> MaxIter 1000
| 32> end
| 33>
| 34> * xyz 0 1
| 35>   C                      7.874232             -11.071143           3.966624
| 36>   O                      7.687014             -11.846176           5.116566
| 37>   H                      7.956098             -12.702588           4.813071
| 38>   H                      7.097583             -10.318167           3.915558
| 39>   H                      8.832153             -10.564399           3.880598
| 40>   H                      7.813907             -11.598509           3.043541
| 41>   C                    : 3.227539             -9.389747            1.845262
| 42>   O                    : 3.765113             -10.424615           2.663280
| 43>   H                    : 4.619003             -10.656900           2.268838
| 44>   H                    : 2.125311             -9.274752            1.876261
| 45>   H                    : 3.707368             -8.437621            2.131932
| 46>   H                    : 3.403514             -9.597160            0.761879
| 47> *
| 48>
| 49> #Run DFT-D3 single point of the particle with dimer basis set
| 50> $new_job
| 51> %base "21-120_DFT_B"
| 52> ! wB97X-D3 def2-TZVP TIGHTSCF CHELPG PMODEL
| 53>
| 54> %scf
| 55> MaxIter 1000
| 56> end
| 57>
| 58> * xyz 0 1
| 59>   C                    : 7.874232             -11.071143           3.966624
| 60>   O                    : 7.687014             -11.846176           5.116566
| 61>   H                    : 7.956098             -12.702588           4.813071
| 62>   H                    : 7.097583             -10.318167           3.915558
| 63>   H                    : 8.832153             -10.564399           3.880598
| 64>   H                    : 7.813907             -11.598509           3.043541
| 65>   C                      3.227539             -9.389747            1.845262
| 66>   O                      3.765113             -10.424615           2.663280
| 67>   H                      4.619003             -10.656900           2.268838
| 68>   H                      2.125311             -9.274752            1.876261
| 69>   H                      3.707368             -8.437621            2.131932
| 70>   H                      3.403514             -9.597160            0.761879
| 71> *
| 72>
| 73>                          ****END OF INPUT****
 Total Charge           Charge          ....    0
 Multiplicity           Mult            ....    1
 Number of Electrons    NEL             ....   36
Dispersion correction           -0.000993589
FINAL SINGLE POINT ENERGY      -231.465549664985
Dispersion correction           -0.000231476
FINAL SINGLE POINT ENERGY      -115.732194252106

CARTESIAN COORDINATES (ANGSTROEM)
---------------------------------
  C      7.874232  -11.071143    3.966624
  O      7.687014  -11.846176    5.116566
  H      7.956098  -12.702588    4.813071
  H      7.097583  -10.318167    3.915558
  H      8.832153  -10.564399    3.880598
  H      7.813907  -11.598509    3.043541
  C      3.227539   -9.389747    1.845262
  O      3.765113  -10.424615    2.663280
  H      4.619003  -10.656900    2.268838
  H      2.125311   -9.274752    1.876261
  H      3.707368   -8.437621    2.131932
  H      3.403514   -9.597160    0.761879

 Multiplicity           Mult            ....    1
 Number of Electrons    NEL             ....   18
 Basis Dimension        Dim             ....  172

ORBITAL ENERGIES
----------------

  NO   OCC          E(Eh)            E(eV)
   0   2.0000     -19.232718      -523.3489
   1   2.0000     -10.319908      -280.8190
   2   2.0000      -1.133536       -30.8451
   3   2.0000      -0.791236       -21.5306
   4   2.0000      -0.605345       -16.4723
   5   2.0000      -0.544973       -14.8295
   6   2.0000      -0.524927       -14.2840
   7   2.0000      -0.430122       -11.7042
   8   2.0000      -0.374983       -10.2038
   9   0.0000       0.079248         2.1564
  10   0.0000       0.119507         3.2519
  11   0.0000       0.149558         4.0697
  12   0.0000       0.171219         4.6591
  13   0.0000       0.186411         5.0725

MULLIKEN ATOMIC CHARGES
-----------------------
   0 C :    0.001724
   1 O :    0.000015
   2 H :    0.000009
   3 H :   -0.004421
   4 H :   -0.000128
   5 H :   -0.000108
   6 C :   -0.178603
   7 O :   -0.471906
   8 H :    0.320961
   9 H :    0.122401
  10 H :    0.105292
  11 H :    0.104766
Sum of atomic charges:   -0.0000000

LOEWDIN ATOMIC CHARGES
----------------------
   0 C :   -0.000748
   1 O :   -0.000010
   2 H :   -0.000001
   3 H :   -0.001627
   4 H :   -0.000009
   5 H :   -0.000125
   6 C :   -0.388301
   7 O :   -0.090169
   8 H :    0.175857
   9 H :    0.109166
  10 H :    0.097052
  11 H :    0.098916

  Mayer bond orders larger than 0.1
B(  6-C ,  7-O ) :   0.9992 B(  6-C ,  9-H ) :   0.9686 B(  6-C , 10-H ) :   0.9763
B(  6-C , 11-H ) :   0.9815 B(  7-O ,  8-H ) :   0.8946

Dispersion correction           -0.000246565
FINAL SINGLE POINT ENERGY      -115.733496879256

DIPOLE MOMENT
-------------
                                X             Y             Z
Electronic contribution:      0.53056      -1.34273       1.21866
Nuclear contribution   :     -0.22871       1.59748      -1.80716
                        -----------------------------------------
Total Dipole Moment    :      0.30185       0.25475      -0.58851
                        -----------------------------------------
Magnitude (a.u.)       :      0.70877
Magnitude (Debye)      :      1.80154

Rotational constants in cm-1:     4.217168     0.812568     0.790162
Rotational constants in MHz : 126427.530201 24360.182607 23688.471072

                             ****ORCA TERMINATED NORMALLY****
TOTAL RUN TIME: 0 days 0 hours 0 minutes 53 seconds 965 msec
