                         Program Version 4.1.2  - RELEASE  -
|  1> #Run DFT-D3 single point of the dimer
|  2> ! wB97X-D3 def2-TZVP TIGHTSCF CHELPG PMODEL PAL8
|  3>
|  4> %base "6-174_DFT_AB"
|  5>
|  6> %scf
|  7> MaxIter 1000
|  8> end
|  9>
| 10> * xyz 0 1
| 11>   C                      3.470945             -7.871248            -6.865342
| 12>   O                      3.665469             -6.548684            -6.468324
| 13>   H                      4.557768             -6.491265            -6.276443
| 14>   H                      4.387833             -8.448434            -6.996690
| 15>   H                      2.867998             -8.443827            -6.204691
| 16>   H                      2.986948             -7.961744            -7.814579
| 17>   C                      7.155881             -8.393305            -8.018918
| 18>   O                      6.341864             -7.327575            -7.522887
| 19>   H                      6.588646             -6.480897            -7.857293
| 20>   H                      8.161152             -8.078132            -8.027653
| 21>   H                      7.060098             -9.355730            -7.427923
| 22>   H                      6.875067             -8.735039            -9.032250
| 23> *
| 24>
| 25> #Run DFT-D3 single point of the molecule with dimer basis set
| 26> $new_job
| 27> %base "6-174_DFT_A"
| 28> ! wB97X-D3 def2-TZVP TIGHTSCF CHELPG PMODEL
| 29>
| 30> %scf
| 31> MaxIter 1000
| 32> end
| 33>
| 34> * xyz 0 1
| 35>   C                      3.470945             -7.871248            -6.865342
| 36>   O                      3.665469             -6.548684            -6.468324
| 37>   H                      4.557768             -6.491265            -6.276443
| 38>   H                      4.387833             -8.448434            -6.996690
| 39>   H                      2.867998             -8.443827            -6.204691
| 40>   H                      2.986948             -7.961744            -7.814579
| 41>   C                    : 7.155881             -8.393305            -8.018918
| 42>   O                    : 6.341864             -7.327575            -7.522887
| 43>   H                    : 6.588646             -6.480897            -7.857293
| 44>   H                    : 8.161152             -8.078132            -8.027653
| 45>   H                    : 7.060098             -9.355730            -7.427923
| 46>   H                    : 6.875067             -8.735039            -9.032250
| 47> *
| 48>
| 49> #Run DFT-D3 single point of the particle with dimer basis set
| 50> $new_job
| 51> %base "6-174_DFT_B"
| 52> ! wB97X-D3 def2-TZVP TIGHTSCF CHELPG PMODEL
| 53>
| 54> %scf
| 55> MaxIter 1000
| 56> end
| 57>
| 58> * xyz 0 1
| 59>   C                    : 3.470945             -7.871248            -6.865342
| 60>   O                    : 3.665469             -6.548684            -6.468324
| 61>   H                    : 4.557768             -6.491265            -6.276443
| 62>   H                    : 4.387833             -8.448434            -6.996690
| 63>   H                    : 2.867998             -8.443827            -6.204691
| 64>   H                    : 2.986948             -7.961744            -7.814579
| 65>   C                      7.155881             -8.393305            -8.018918
| 66>   O                      6.341864             -7.327575            -7.522887
| 67>   H                      6.588646             -6.480897            -7.857293
| 68>   H                      8.161152             -8.078132            -8.027653
| 69>   H                      7.060098             -9.355730            -7.427923
| 70>   H                      6.875067             -8.735039            -9.032250
| 71> *
| 72>
| 73>                          ****END OF INPUT****
 Total Charge           Charge          ....    0
 Multiplicity           Mult            ....    1
 Number of Electrons    NEL             ....   36
Dispersion correction           -0.002028676
FINAL SINGLE POINT ENERGY      -231.466375689969
Dispersion correction           -0.000235997
FINAL SINGLE POINT ENERGY      -115.730915166427

CARTESIAN COORDINATES (ANGSTROEM)
---------------------------------
  C      3.470945   -7.871248   -6.865342
  O      3.665469   -6.548684   -6.468324
  H      4.557768   -6.491265   -6.276443
  H      4.387833   -8.448434   -6.996690
  H      2.867998   -8.443827   -6.204691
  H      2.986948   -7.961744   -7.814579
  C      7.155881   -8.393305   -8.018918
  O      6.341864   -7.327575   -7.522887
  H      6.588646   -6.480897   -7.857293
  H      8.161152   -8.078132   -8.027653
  H      7.060098   -9.355730   -7.427923
  H      6.875067   -8.735039   -9.032250

 Multiplicity           Mult            ....    1
 Number of Electrons    NEL             ....   18
 Basis Dimension        Dim             ....  172

ORBITAL ENERGIES
----------------

  NO   OCC          E(Eh)            E(eV)
   0   2.0000     -19.228134      -523.2241
   1   2.0000     -10.317425      -280.7514
   2   2.0000      -1.132101       -30.8060
   3   2.0000      -0.800406       -21.7801
   4   2.0000      -0.613273       -16.6880
   5   2.0000      -0.545431       -14.8419
   6   2.0000      -0.522052       -14.2058
   7   2.0000      -0.427552       -11.6343
   8   2.0000      -0.374144       -10.1810
   9   0.0000       0.101847         2.7714
  10   0.0000       0.133591         3.6352
  11   0.0000       0.144303         3.9267
  12   0.0000       0.192351         5.2341
  13   0.0000       0.196975         5.3600

MULLIKEN ATOMIC CHARGES
-----------------------
   0 C :    0.000651
   1 O :    0.000884
   2 H :   -0.007573
   3 H :   -0.002609
   4 H :   -0.000583
   5 H :   -0.001067
   6 C :   -0.160494
   7 O :   -0.479747
   8 H :    0.314970
   9 H :    0.115381
  10 H :    0.122486
  11 H :    0.097702
Sum of atomic charges:   -0.0000000

LOEWDIN ATOMIC CHARGES
----------------------
   0 C :   -0.019275
   1 O :   -0.003703
   2 H :   -0.015001
   3 H :   -0.012086
   4 H :   -0.000245
   5 H :   -0.000688
   6 C :   -0.367844
   7 O :   -0.041950
   8 H :    0.157057
   9 H :    0.089469
  10 H :    0.118025
  11 H :    0.096241

  Mayer bond orders larger than 0.1
B(  6-C ,  7-O ) :   0.9871 B(  6-C ,  9-H ) :   0.9788 B(  6-C , 10-H ) :   0.9740
B(  6-C , 11-H ) :   0.9721 B(  7-O ,  8-H ) :   0.8956

Dispersion correction           -0.000263570
FINAL SINGLE POINT ENERGY      -115.731578535309

DIPOLE MOMENT
-------------
                                X             Y             Z
Electronic contribution:     -1.03458       1.34122       0.71774
Nuclear contribution   :      1.56962      -1.23216      -1.14663
                        -----------------------------------------
Total Dipole Moment    :      0.53503       0.10906      -0.42889
                        -----------------------------------------
Magnitude (a.u.)       :      0.69434
Magnitude (Debye)      :      1.76486

Rotational constants in cm-1:     4.462238     0.804046     0.776618
Rotational constants in MHz : 133774.533598 24104.704965 23282.426269

                             ****ORCA TERMINATED NORMALLY****
TOTAL RUN TIME: 0 days 0 hours 1 minutes 9 seconds 41 msec
