                         Program Version 4.1.2  - RELEASE  -
|  1> #Run DFT-D3 single point of the dimer
|  2> ! wB97X-D3 def2-TZVP TIGHTSCF CHELPG PMODEL PAL8
|  3>
|  4> %base "9-83_DFT_AB"
|  5>
|  6> %scf
|  7> MaxIter 1000
|  8> end
|  9>
| 10> * xyz 0 1
| 11>   C                      6.644204             -5.381908            9.413953
| 12>   O                      6.052512             -6.076243            8.369976
| 13>   H                      6.674226             -6.664635            7.970221
| 14>   H                      5.870115             -4.708260            9.921547
| 15>   H                      6.957315             -6.125516            10.130067
| 16>   H                      7.387805             -4.639974            9.029258
| 17>   C                      8.264590             -6.277719            5.998486
| 18>   O                      8.012149             -7.412224            6.761491
| 19>   H                      7.331496             -7.951314            6.315991
| 20>   H                      8.566802             -6.611189            4.969169
| 21>   H                      7.420928             -5.647078            5.856310
| 22>   H                      8.913490             -5.615857            6.512467
| 23> *
| 24>
| 25> #Run DFT-D3 single point of the molecule with dimer basis set
| 26> $new_job
| 27> %base "9-83_DFT_A"
| 28> ! wB97X-D3 def2-TZVP TIGHTSCF CHELPG PMODEL
| 29>
| 30> %scf
| 31> MaxIter 1000
| 32> end
| 33>
| 34> * xyz 0 1
| 35>   C                      6.644204             -5.381908            9.413953
| 36>   O                      6.052512             -6.076243            8.369976
| 37>   H                      6.674226             -6.664635            7.970221
| 38>   H                      5.870115             -4.708260            9.921547
| 39>   H                      6.957315             -6.125516            10.130067
| 40>   H                      7.387805             -4.639974            9.029258
| 41>   C                    : 8.264590             -6.277719            5.998486
| 42>   O                    : 8.012149             -7.412224            6.761491
| 43>   H                    : 7.331496             -7.951314            6.315991
| 44>   H                    : 8.566802             -6.611189            4.969169
| 45>   H                    : 7.420928             -5.647078            5.856310
| 46>   H                    : 8.913490             -5.615857            6.512467
| 47> *
| 48>
| 49> #Run DFT-D3 single point of the particle with dimer basis set
| 50> $new_job
| 51> %base "9-83_DFT_B"
| 52> ! wB97X-D3 def2-TZVP TIGHTSCF CHELPG PMODEL
| 53>
| 54> %scf
| 55> MaxIter 1000
| 56> end
| 57>
| 58> * xyz 0 1
| 59>   C                    : 6.644204             -5.381908            9.413953
| 60>   O                    : 6.052512             -6.076243            8.369976
| 61>   H                    : 6.674226             -6.664635            7.970221
| 62>   H                    : 5.870115             -4.708260            9.921547
| 63>   H                    : 6.957315             -6.125516            10.130067
| 64>   H                    : 7.387805             -4.639974            9.029258
| 65>   C                      8.264590             -6.277719            5.998486
| 66>   O                      8.012149             -7.412224            6.761491
| 67>   H                      7.331496             -7.951314            6.315991
| 68>   H                      8.566802             -6.611189            4.969169
| 69>   H                      7.420928             -5.647078            5.856310
| 70>   H                      8.913490             -5.615857            6.512467
| 71> *
| 72>
| 73>                          ****END OF INPUT****
 Total Charge           Charge          ....    0
 Multiplicity           Mult            ....    1
 Number of Electrons    NEL             ....   36
Dispersion correction           -0.002069739
FINAL SINGLE POINT ENERGY      -231.470396722806
Dispersion correction           -0.000228829
FINAL SINGLE POINT ENERGY      -115.731497711141

CARTESIAN COORDINATES (ANGSTROEM)
---------------------------------
  C      6.644204   -5.381908    9.413953
  O      6.052512   -6.076243    8.369976
  H      6.674226   -6.664635    7.970221
  H      5.870115   -4.708260    9.921547
  H      6.957315   -6.125516   10.130067
  H      7.387805   -4.639974    9.029258
  C      8.264590   -6.277719    5.998486
  O      8.012149   -7.412224    6.761491
  H      7.331496   -7.951314    6.315991
  H      8.566802   -6.611189    4.969169
  H      7.420928   -5.647078    5.856310
  H      8.913490   -5.615857    6.512467

 Multiplicity           Mult            ....    1
 Number of Electrons    NEL             ....   18
 Basis Dimension        Dim             ....  172

ORBITAL ENERGIES
----------------

  NO   OCC          E(Eh)            E(eV)
   0   2.0000     -19.231484      -523.3153
   1   2.0000     -10.307879      -280.4917
   2   2.0000      -1.140646       -31.0386
   3   2.0000      -0.798423       -21.7262
   4   2.0000      -0.615889       -16.7592
   5   2.0000      -0.553242       -15.0545
   6   2.0000      -0.524452       -14.2711
   7   2.0000      -0.433671       -11.8008
   8   2.0000      -0.369628       -10.0581
   9   0.0000       0.092564         2.5188
  10   0.0000       0.123471         3.3598
  11   0.0000       0.152991         4.1631
  12   0.0000       0.183463         4.9923
  13   0.0000       0.194419         5.2904

MULLIKEN ATOMIC CHARGES
-----------------------
   0 C :    0.003979
   1 O :    0.003351
   2 H :   -0.023102
   3 H :   -0.000057
   4 H :   -0.000732
   5 H :   -0.000741
   6 C :   -0.155274
   7 O :   -0.467229
   8 H :    0.317979
   9 H :    0.098776
  10 H :    0.103794
  11 H :    0.119254
Sum of atomic charges:   -0.0000000

LOEWDIN ATOMIC CHARGES
----------------------
   0 C :   -0.002668
   1 O :   -0.006314
   2 H :   -0.043367
   3 H :   -0.000038
   4 H :   -0.000233
   5 H :   -0.000357
   6 C :   -0.395498
   7 O :   -0.029358
   8 H :    0.182878
   9 H :    0.102349
  10 H :    0.088663
  11 H :    0.103944

  Mayer bond orders larger than 0.1
B(  6-C ,  7-O ) :   0.9846 B(  6-C ,  9-H ) :   0.9806 B(  6-C , 10-H ) :   0.9777
B(  6-C , 11-H ) :   0.9765 B(  7-O ,  8-H ) :   0.8930

Dispersion correction           -0.000223906
FINAL SINGLE POINT ENERGY      -115.731262198739

DIPOLE MOMENT
-------------
                                X             Y             Z
Electronic contribution:     -0.14078      -1.40851       1.13754
Nuclear contribution   :     -0.20560       1.53171      -1.70274
                        -----------------------------------------
Total Dipole Moment    :     -0.34638       0.12320      -0.56520
                        -----------------------------------------
Magnitude (a.u.)       :      0.67424
Magnitude (Debye)      :      1.71379

Rotational constants in cm-1:     4.361933     0.859013     0.819983
Rotational constants in MHz : 130767.465030 25752.548722 24582.465365

                             ****ORCA TERMINATED NORMALLY****
TOTAL RUN TIME: 0 days 0 hours 0 minutes 47 seconds 626 msec
