                         Program Version 4.1.2  - RELEASE  -
|  1> #Run DFT-D3 single point of the dimer
|  2> ! wB97X-D3 def2-TZVP TIGHTSCF CHELPG PMODEL PAL8
|  3>
|  4> %base "3-106_DFT_AB"
|  5>
|  6> %scf
|  7> MaxIter 1000
|  8> end
|  9>
| 10> * xyz 0 1
| 11>   C                      3.247965             -4.559031            -0.450661
| 12>   O                      3.082228             -5.100131            0.833028
| 13>   H                      3.428484             -4.516003            1.598931
| 14>   H                      2.833958             -5.230700            -1.176977
| 15>   H                      2.781872             -3.575299            -0.586808
| 16>   H                      4.333572             -4.378047            -0.637821
| 17>   C                      6.996437             -2.224531            3.883595
| 18>   O                      6.259011             -3.395913            3.953486
| 19>   H                      6.103814             -3.751609            4.808324
| 20>   H                      7.995976             -2.230445            4.341274
| 21>   H                      7.236184             -1.930815            2.859004
| 22>   H                      6.368205             -1.448415            4.376901
| 23> *
| 24>
| 25> #Run DFT-D3 single point of the molecule with dimer basis set
| 26> $new_job
| 27> %base "3-106_DFT_A"
| 28> ! wB97X-D3 def2-TZVP TIGHTSCF CHELPG PMODEL
| 29>
| 30> %scf
| 31> MaxIter 1000
| 32> end
| 33>
| 34> * xyz 0 1
| 35>   C                      3.247965             -4.559031            -0.450661
| 36>   O                      3.082228             -5.100131            0.833028
| 37>   H                      3.428484             -4.516003            1.598931
| 38>   H                      2.833958             -5.230700            -1.176977
| 39>   H                      2.781872             -3.575299            -0.586808
| 40>   H                      4.333572             -4.378047            -0.637821
| 41>   C                    : 6.996437             -2.224531            3.883595
| 42>   O                    : 6.259011             -3.395913            3.953486
| 43>   H                    : 6.103814             -3.751609            4.808324
| 44>   H                    : 7.995976             -2.230445            4.341274
| 45>   H                    : 7.236184             -1.930815            2.859004
| 46>   H                    : 6.368205             -1.448415            4.376901
| 47> *
| 48>
| 49> #Run DFT-D3 single point of the particle with dimer basis set
| 50> $new_job
| 51> %base "3-106_DFT_B"
| 52> ! wB97X-D3 def2-TZVP TIGHTSCF CHELPG PMODEL
| 53>
| 54> %scf
| 55> MaxIter 1000
| 56> end
| 57>
| 58> * xyz 0 1
| 59>   C                    : 3.247965             -4.559031            -0.450661
| 60>   O                    : 3.082228             -5.100131            0.833028
| 61>   H                    : 3.428484             -4.516003            1.598931
| 62>   H                    : 2.833958             -5.230700            -1.176977
| 63>   H                    : 2.781872             -3.575299            -0.586808
| 64>   H                    : 4.333572             -4.378047            -0.637821
| 65>   C                      6.996437             -2.224531            3.883595
| 66>   O                      6.259011             -3.395913            3.953486
| 67>   H                      6.103814             -3.751609            4.808324
| 68>   H                      7.995976             -2.230445            4.341274
| 69>   H                      7.236184             -1.930815            2.859004
| 70>   H                      6.368205             -1.448415            4.376901
| 71> *
| 72>
| 73>                          ****END OF INPUT****
 Total Charge           Charge          ....    0
 Multiplicity           Mult            ....    1
 Number of Electrons    NEL             ....   36
Dispersion correction           -0.000722121
FINAL SINGLE POINT ENERGY      -231.463744870055
Dispersion correction           -0.000258005
FINAL SINGLE POINT ENERGY      -115.731119918918

CARTESIAN COORDINATES (ANGSTROEM)
---------------------------------
  C      3.247965   -4.559031   -0.450661
  O      3.082228   -5.100131    0.833028
  H      3.428484   -4.516003    1.598931
  H      2.833958   -5.230700   -1.176977
  H      2.781872   -3.575299   -0.586808
  H      4.333572   -4.378047   -0.637821
  C      6.996437   -2.224531    3.883595
  O      6.259011   -3.395913    3.953486
  H      6.103814   -3.751609    4.808324
  H      7.995976   -2.230445    4.341274
  H      7.236184   -1.930815    2.859004
  H      6.368205   -1.448415    4.376901

 Multiplicity           Mult            ....    1
 Number of Electrons    NEL             ....   18
 Basis Dimension        Dim             ....  172

ORBITAL ENERGIES
----------------

  NO   OCC          E(Eh)            E(eV)
   0   2.0000     -19.225378      -523.1491
   1   2.0000     -10.314373      -280.6684
   2   2.0000      -1.143569       -31.1181
   3   2.0000      -0.800305       -21.7774
   4   2.0000      -0.619733       -16.8638
   5   2.0000      -0.549509       -14.9529
   6   2.0000      -0.527518       -14.3545
   7   2.0000      -0.419315       -11.4101
   8   2.0000      -0.370730       -10.0881
   9   0.0000       0.094153         2.5620
  10   0.0000       0.119088         3.2405
  11   0.0000       0.152977         4.1627
  12   0.0000       0.175756         4.7826
  13   0.0000       0.198572         5.4034

MULLIKEN ATOMIC CHARGES
-----------------------
   0 C :    0.000197
   1 O :    0.000140
   2 H :   -0.001684
   3 H :   -0.000002
   4 H :   -0.000007
   5 H :   -0.000060
   6 C :   -0.137630
   7 O :   -0.485166
   8 H :    0.318502
   9 H :    0.094584
  10 H :    0.116640
  11 H :    0.094486
Sum of atomic charges:    0.0000000

LOEWDIN ATOMIC CHARGES
----------------------
   0 C :   -0.000012
   1 O :   -0.000017
   2 H :   -0.000988
   3 H :   -0.000000
   4 H :   -0.000000
   5 H :   -0.000005
   6 C :   -0.404638
   7 O :   -0.049734
   8 H :    0.155533
   9 H :    0.092824
  10 H :    0.108247
  11 H :    0.098790

  Mayer bond orders larger than 0.1
B(  6-C ,  7-O ) :   0.9937 B(  6-C ,  9-H ) :   0.9682 B(  6-C , 10-H ) :   0.9696
B(  6-C , 11-H ) :   0.9895 B(  7-O ,  8-H ) :   0.8932

Dispersion correction           -0.000252793
FINAL SINGLE POINT ENERGY      -115.731163748388

DIPOLE MOMENT
-------------
                                X             Y             Z
Electronic contribution:     -0.93644      -1.58588      -0.03226
Nuclear contribution   :      1.14552       1.80660       0.56719
                        -----------------------------------------
Total Dipole Moment    :      0.20908       0.22072       0.53492
                        -----------------------------------------
Magnitude (a.u.)       :      0.61529
Magnitude (Debye)      :      1.56393

Rotational constants in cm-1:     4.473408     0.839424     0.818225
Rotational constants in MHz : 134109.404883 25165.288127 24529.777079

                             ****ORCA TERMINATED NORMALLY****
TOTAL RUN TIME: 0 days 0 hours 6 minutes 0 seconds 614 msec
