                         Program Version 4.1.2  - RELEASE  -
|  1> #Run DFT-D3 single point of the dimer
|  2> ! wB97X-D3 def2-TZVP TIGHTSCF CHELPG PMODEL PAL8
|  3>
|  4> %base "9-98_DFT_AB"
|  5>
|  6> %scf
|  7> MaxIter 1000
|  8> end
|  9>
| 10> * xyz 0 1
| 11>   C                      -2.747217            -1.439285            7.215734
| 12>   O                      -3.661565            -2.257749            7.941439
| 13>   H                      -4.087411            -2.914877            7.304557
| 14>   H                      -1.744539            -1.863552            7.165893
| 15>   H                      -3.187766            -1.140830            6.244377
| 16>   H                      -2.642980            -0.476722            7.720025
| 17>   C                      -2.497234            1.424267             4.891622
| 18>   O                      -2.654171            0.374319             3.913851
| 19>   H                      -3.592682            0.040974             4.025586
| 20>   H                      -1.416648            1.782374             5.033693
| 21>   H                      -3.003030            2.364827             4.689943
| 22>   H                      -2.756721            1.046714             5.876505
| 23> *
| 24>
| 25> #Run DFT-D3 single point of the molecule with dimer basis set
| 26> $new_job
| 27> %base "9-98_DFT_A"
| 28> ! wB97X-D3 def2-TZVP TIGHTSCF CHELPG PMODEL
| 29>
| 30> %scf
| 31> MaxIter 1000
| 32> end
| 33>
| 34> * xyz 0 1
| 35>   C                      -2.747217            -1.439285            7.215734
| 36>   O                      -3.661565            -2.257749            7.941439
| 37>   H                      -4.087411            -2.914877            7.304557
| 38>   H                      -1.744539            -1.863552            7.165893
| 39>   H                      -3.187766            -1.140830            6.244377
| 40>   H                      -2.642980            -0.476722            7.720025
| 41>   C                    : -2.497234            1.424267             4.891622
| 42>   O                    : -2.654171            0.374319             3.913851
| 43>   H                    : -3.592682            0.040974             4.025586
| 44>   H                    : -1.416648            1.782374             5.033693
| 45>   H                    : -3.003030            2.364827             4.689943
| 46>   H                    : -2.756721            1.046714             5.876505
| 47> *
| 48>
| 49> #Run DFT-D3 single point of the particle with dimer basis set
| 50> $new_job
| 51> %base "9-98_DFT_B"
| 52> ! wB97X-D3 def2-TZVP TIGHTSCF CHELPG PMODEL
| 53>
| 54> %scf
| 55> MaxIter 1000
| 56> end
| 57>
| 58> * xyz 0 1
| 59>   C                    : -2.747217            -1.439285            7.215734
| 60>   O                    : -3.661565            -2.257749            7.941439
| 61>   H                    : -4.087411            -2.914877            7.304557
| 62>   H                    : -1.744539            -1.863552            7.165893
| 63>   H                    : -3.187766            -1.140830            6.244377
| 64>   H                    : -2.642980            -0.476722            7.720025
| 65>   C                      -2.497234            1.424267             4.891622
| 66>   O                      -2.654171            0.374319             3.913851
| 67>   H                      -3.592682            0.040974             4.025586
| 68>   H                      -1.416648            1.782374             5.033693
| 69>   H                      -3.003030            2.364827             4.689943
| 70>   H                      -2.756721            1.046714             5.876505
| 71> *
| 72>
| 73>                          ****END OF INPUT****
 Total Charge           Charge          ....    0
 Multiplicity           Mult            ....    1
 Number of Electrons    NEL             ....   36
Dispersion correction           -0.001803398
FINAL SINGLE POINT ENERGY      -231.462357913607
Dispersion correction           -0.000258130
FINAL SINGLE POINT ENERGY      -115.732437025421

CARTESIAN COORDINATES (ANGSTROEM)
---------------------------------
  C     -2.747217   -1.439285    7.215734
  O     -3.661565   -2.257749    7.941439
  H     -4.087411   -2.914877    7.304557
  H     -1.744539   -1.863552    7.165893
  H     -3.187766   -1.140830    6.244377
  H     -2.642980   -0.476722    7.720025
  C     -2.497234    1.424267    4.891622
  O     -2.654171    0.374319    3.913851
  H     -3.592682    0.040974    4.025586
  H     -1.416648    1.782374    5.033693
  H     -3.003030    2.364827    4.689943
  H     -2.756721    1.046714    5.876505

 Multiplicity           Mult            ....    1
 Number of Electrons    NEL             ....   18
 Basis Dimension        Dim             ....  172

ORBITAL ENERGIES
----------------

  NO   OCC          E(Eh)            E(eV)
   0   2.0000     -19.239444      -523.5319
   1   2.0000     -10.319604      -280.8107
   2   2.0000      -1.123384       -30.5688
   3   2.0000      -0.792215       -21.5573
   4   2.0000      -0.600080       -16.3290
   5   2.0000      -0.544132       -14.8066
   6   2.0000      -0.518373       -14.1056
   7   2.0000      -0.429079       -11.6758
   8   2.0000      -0.378623       -10.3028
   9   0.0000       0.082202         2.2368
  10   0.0000       0.123680         3.3655
  11   0.0000       0.141967         3.8631
  12   0.0000       0.170260         4.6330
  13   0.0000       0.189652         5.1607

MULLIKEN ATOMIC CHARGES
-----------------------
   0 C :    0.010228
   1 O :    0.000017
   2 H :   -0.000016
   3 H :   -0.000429
   4 H :   -0.015477
   5 H :   -0.001130
   6 C :   -0.180902
   7 O :   -0.466306
   8 H :    0.320183
   9 H :    0.114787
  10 H :    0.116311
  11 H :    0.102734
Sum of atomic charges:    0.0000000

LOEWDIN ATOMIC CHARGES
----------------------
   0 C :   -0.008053
   1 O :   -0.000033
   2 H :   -0.000003
   3 H :   -0.000116
   4 H :   -0.007479
   5 H :   -0.003289
   6 C :   -0.377171
   7 O :   -0.107607
   8 H :    0.194144
   9 H :    0.118804
  10 H :    0.093180
  11 H :    0.097623

  Mayer bond orders larger than 0.1
B(  6-C ,  7-O ) :   1.0015 B(  6-C ,  9-H ) :   0.9723 B(  6-C , 10-H ) :   0.9743
B(  6-C , 11-H ) :   0.9803 B(  7-O ,  8-H ) :   0.8922

Dispersion correction           -0.000272295
FINAL SINGLE POINT ENERGY      -115.729608729203

DIPOLE MOMENT
-------------
                                X             Y             Z
Electronic contribution:     -0.15611      -1.35347      -1.40838
Nuclear contribution   :     -0.34655       1.58077       1.87344
                        -----------------------------------------
Total Dipole Moment    :     -0.50265       0.22729       0.46506
                        -----------------------------------------
Magnitude (a.u.)       :      0.72153
Magnitude (Debye)      :      1.83399

Rotational constants in cm-1:     4.281421     0.788851     0.762511
Rotational constants in MHz : 128353.760053 23649.155533 22859.513677

                             ****ORCA TERMINATED NORMALLY****
TOTAL RUN TIME: 0 days 0 hours 0 minutes 37 seconds 463 msec
