                         Program Version 4.1.2  - RELEASE  -
|  1> #Run DFT-D3 single point of the dimer
|  2> ! wB97X-D3 def2-TZVP TIGHTSCF CHELPG PMODEL PAL8
|  3>
|  4> %base "3-102_DFT_AB"
|  5>
|  6> %scf
|  7> MaxIter 1000
|  8> end
|  9>
| 10> * xyz 0 1
| 11>   C                      3.247965             -4.559031            -0.450661
| 12>   O                      3.082228             -5.100131            0.833028
| 13>   H                      3.428484             -4.516003            1.598931
| 14>   H                      2.833958             -5.230700            -1.176977
| 15>   H                      2.781872             -3.575299            -0.586808
| 16>   H                      4.333572             -4.378047            -0.637821
| 17>   C                      6.118373             -2.670244            -4.996955
| 18>   O                      6.161359             -3.393078            -3.692025
| 19>   H                      6.229340             -2.800220            -2.998061
| 20>   H                      7.127370             -2.449969            -5.238422
| 21>   H                      5.693212             -3.234737            -5.786587
| 22>   H                      5.583125             -1.746994            -4.945370
| 23> *
| 24>
| 25> #Run DFT-D3 single point of the molecule with dimer basis set
| 26> $new_job
| 27> %base "3-102_DFT_A"
| 28> ! wB97X-D3 def2-TZVP TIGHTSCF CHELPG PMODEL
| 29>
| 30> %scf
| 31> MaxIter 1000
| 32> end
| 33>
| 34> * xyz 0 1
| 35>   C                      3.247965             -4.559031            -0.450661
| 36>   O                      3.082228             -5.100131            0.833028
| 37>   H                      3.428484             -4.516003            1.598931
| 38>   H                      2.833958             -5.230700            -1.176977
| 39>   H                      2.781872             -3.575299            -0.586808
| 40>   H                      4.333572             -4.378047            -0.637821
| 41>   C                    : 6.118373             -2.670244            -4.996955
| 42>   O                    : 6.161359             -3.393078            -3.692025
| 43>   H                    : 6.229340             -2.800220            -2.998061
| 44>   H                    : 7.127370             -2.449969            -5.238422
| 45>   H                    : 5.693212             -3.234737            -5.786587
| 46>   H                    : 5.583125             -1.746994            -4.945370
| 47> *
| 48>
| 49> #Run DFT-D3 single point of the particle with dimer basis set
| 50> $new_job
| 51> %base "3-102_DFT_B"
| 52> ! wB97X-D3 def2-TZVP TIGHTSCF CHELPG PMODEL
| 53>
| 54> %scf
| 55> MaxIter 1000
| 56> end
| 57>
| 58> * xyz 0 1
| 59>   C                    : 3.247965             -4.559031            -0.450661
| 60>   O                    : 3.082228             -5.100131            0.833028
| 61>   H                    : 3.428484             -4.516003            1.598931
| 62>   H                    : 2.833958             -5.230700            -1.176977
| 63>   H                    : 2.781872             -3.575299            -0.586808
| 64>   H                    : 4.333572             -4.378047            -0.637821
| 65>   C                      6.118373             -2.670244            -4.996955
| 66>   O                      6.161359             -3.393078            -3.692025
| 67>   H                      6.229340             -2.800220            -2.998061
| 68>   H                      7.127370             -2.449969            -5.238422
| 69>   H                      5.693212             -3.234737            -5.786587
| 70>   H                      5.583125             -1.746994            -4.945370
| 71> *
| 72>
| 73>                          ****END OF INPUT****
 Total Charge           Charge          ....    0
 Multiplicity           Mult            ....    1
 Number of Electrons    NEL             ....   36
Dispersion correction           -0.000844672
FINAL SINGLE POINT ENERGY      -231.459101174526
Dispersion correction           -0.000258005
FINAL SINGLE POINT ENERGY      -115.731127171646

CARTESIAN COORDINATES (ANGSTROEM)
---------------------------------
  C      3.247965   -4.559031   -0.450661
  O      3.082228   -5.100131    0.833028
  H      3.428484   -4.516003    1.598931
  H      2.833958   -5.230700   -1.176977
  H      2.781872   -3.575299   -0.586808
  H      4.333572   -4.378047   -0.637821
  C      6.118373   -2.670244   -4.996955
  O      6.161359   -3.393078   -3.692025
  H      6.229340   -2.800220   -2.998061
  H      7.127370   -2.449969   -5.238422
  H      5.693212   -3.234737   -5.786587
  H      5.583125   -1.746994   -4.945370

 Multiplicity           Mult            ....    1
 Number of Electrons    NEL             ....   18
 Basis Dimension        Dim             ....  172

ORBITAL ENERGIES
----------------

  NO   OCC          E(Eh)            E(eV)
   0   2.0000     -19.222354      -523.0668
   1   2.0000     -10.311068      -280.5784
   2   2.0000      -1.120813       -30.4989
   3   2.0000      -0.811422       -22.0799
   4   2.0000      -0.602839       -16.4041
   5   2.0000      -0.541454       -14.7337
   6   2.0000      -0.527034       -14.3413
   7   2.0000      -0.436699       -11.8832
   8   2.0000      -0.375965       -10.2305
   9   0.0000       0.089406         2.4329
  10   0.0000       0.121703         3.3117
  11   0.0000       0.148321         4.0360
  12   0.0000       0.172212         4.6861
  13   0.0000       0.196937         5.3589

MULLIKEN ATOMIC CHARGES
-----------------------
   0 C :   -0.000142
   1 O :   -0.000037
   2 H :   -0.000009
   3 H :    0.000029
   4 H :   -0.000002
   5 H :   -0.001729
   6 C :   -0.168431
   7 O :   -0.487628
   8 H :    0.304423
   9 H :    0.113173
  10 H :    0.127549
  11 H :    0.112806
Sum of atomic charges:   -0.0000000

LOEWDIN ATOMIC CHARGES
----------------------
   0 C :   -0.000787
   1 O :   -0.000012
   2 H :   -0.000002
   3 H :   -0.000035
   4 H :   -0.000031
   5 H :   -0.000799
   6 C :   -0.309842
   7 O :   -0.107946
   8 H :    0.129982
   9 H :    0.093720
  10 H :    0.101671
  11 H :    0.094082

  Mayer bond orders larger than 0.1
B(  6-C ,  7-O ) :   0.9836 B(  6-C ,  9-H ) :   0.9833 B(  6-C , 10-H ) :   0.9726
B(  6-C , 11-H ) :   0.9761 B(  7-O ,  8-H ) :   0.9112

Dispersion correction           -0.000261790
FINAL SINGLE POINT ENERGY      -115.727696658250

DIPOLE MOMENT
-------------
                                X             Y             Z
Electronic contribution:     -0.02552      -0.98081       1.44161
Nuclear contribution   :      0.05055       1.71715      -1.59994
                        -----------------------------------------
Total Dipole Moment    :      0.02503       0.73634      -0.15833
                        -----------------------------------------
Magnitude (a.u.)       :      0.75359
Magnitude (Debye)      :      1.91546

Rotational constants in cm-1:     4.628051     0.762658     0.740555
Rotational constants in MHz : 138745.484009 22863.906503 22201.268058

                             ****ORCA TERMINATED NORMALLY****
TOTAL RUN TIME: 0 days 0 hours 5 minutes 58 seconds 107 msec
