                         Program Version 4.1.2  - RELEASE  -
|  1> #Run DFT-D3 single point of the dimer
|  2> ! wB97X-D3 def2-TZVP TIGHTSCF CHELPG PMODEL PAL8
|  3>
|  4> %base "7-99_DFT_AB"
|  5>
|  6> %scf
|  7> MaxIter 1000
|  8> end
|  9>
| 10> * xyz 0 1
| 11>   C                      9.977652             -2.198286            -7.359169
| 12>   O                      11.412398            -2.219645            -7.354476
| 13>   H                      11.773627            -1.911416            -6.524812
| 14>   H                      9.486885             -2.938841            -6.747138
| 15>   H                      9.553607             -1.262547            -7.091710
| 16>   H                      9.519030             -2.212074            -8.322583
| 17>   C                      10.309502            -0.021487            -10.700628
| 18>   O                      11.136526            1.110326             -10.693329
| 19>   H                      11.472406            1.160268             -11.593267
| 20>   H                      10.860825            -0.825709            -11.157189
| 21>   H                      10.009749            -0.337391            -9.682741
| 22>   H                      9.424048             0.197225             -11.263674
| 23> *
| 24>
| 25> #Run DFT-D3 single point of the molecule with dimer basis set
| 26> $new_job
| 27> %base "7-99_DFT_A"
| 28> ! wB97X-D3 def2-TZVP TIGHTSCF CHELPG PMODEL
| 29>
| 30> %scf
| 31> MaxIter 1000
| 32> end
| 33>
| 34> * xyz 0 1
| 35>   C                      9.977652             -2.198286            -7.359169
| 36>   O                      11.412398            -2.219645            -7.354476
| 37>   H                      11.773627            -1.911416            -6.524812
| 38>   H                      9.486885             -2.938841            -6.747138
| 39>   H                      9.553607             -1.262547            -7.091710
| 40>   H                      9.519030             -2.212074            -8.322583
| 41>   C                    : 10.309502            -0.021487            -10.700628
| 42>   O                    : 11.136526            1.110326             -10.693329
| 43>   H                    : 11.472406            1.160268             -11.593267
| 44>   H                    : 10.860825            -0.825709            -11.157189
| 45>   H                    : 10.009749            -0.337391            -9.682741
| 46>   H                    : 9.424048             0.197225             -11.263674
| 47> *
| 48>
| 49> #Run DFT-D3 single point of the particle with dimer basis set
| 50> $new_job
| 51> %base "7-99_DFT_B"
| 52> ! wB97X-D3 def2-TZVP TIGHTSCF CHELPG PMODEL
| 53>
| 54> %scf
| 55> MaxIter 1000
| 56> end
| 57>
| 58> * xyz 0 1
| 59>   C                    : 9.977652             -2.198286            -7.359169
| 60>   O                    : 11.412398            -2.219645            -7.354476
| 61>   H                    : 11.773627            -1.911416            -6.524812
| 62>   H                    : 9.486885             -2.938841            -6.747138
| 63>   H                    : 9.553607             -1.262547            -7.091710
| 64>   H                    : 9.519030             -2.212074            -8.322583
| 65>   C                      10.309502            -0.021487            -10.700628
| 66>   O                      11.136526            1.110326             -10.693329
| 67>   H                      11.472406            1.160268             -11.593267
| 68>   H                      10.860825            -0.825709            -11.157189
| 69>   H                      10.009749            -0.337391            -9.682741
| 70>   H                      9.424048             0.197225             -11.263674
| 71> *
| 72>
| 73>                          ****END OF INPUT****
 Total Charge           Charge          ....    0
 Multiplicity           Mult            ....    1
 Number of Electrons    NEL             ....   36
Dispersion correction           -0.001435731
FINAL SINGLE POINT ENERGY      -231.462288129830
Dispersion correction           -0.000275830
FINAL SINGLE POINT ENERGY      -115.727602657977

CARTESIAN COORDINATES (ANGSTROEM)
---------------------------------
  C      9.977652   -2.198286   -7.359169
  O     11.412398   -2.219645   -7.354476
  H     11.773627   -1.911416   -6.524812
  H      9.486885   -2.938841   -6.747138
  H      9.553607   -1.262547   -7.091710
  H      9.519030   -2.212074   -8.322583
  C     10.309502   -0.021487  -10.700628
  O     11.136526    1.110326  -10.693329
  H     11.472406    1.160268  -11.593267
  H     10.860825   -0.825709  -11.157189
  H     10.009749   -0.337391   -9.682741
  H      9.424048    0.197225  -11.263674

 Multiplicity           Mult            ....    1
 Number of Electrons    NEL             ....   18
 Basis Dimension        Dim             ....  172

ORBITAL ENERGIES
----------------

  NO   OCC          E(Eh)            E(eV)
   0   2.0000     -19.227822      -523.2156
   1   2.0000     -10.308621      -280.5118
   2   2.0000      -1.141335       -31.0573
   3   2.0000      -0.793043       -21.5798
   4   2.0000      -0.610269       -16.6063
   5   2.0000      -0.551192       -14.9987
   6   2.0000      -0.529558       -14.4100
   7   2.0000      -0.433408       -11.7936
   8   2.0000      -0.371720       -10.1150
   9   0.0000       0.086360         2.3500
  10   0.0000       0.115544         3.1441
  11   0.0000       0.152120         4.1394
  12   0.0000       0.172814         4.7025
  13   0.0000       0.185236         5.0405

MULLIKEN ATOMIC CHARGES
-----------------------
   0 C :    0.001788
   1 O :   -0.000042
   2 H :   -0.000009
   3 H :    0.000024
   4 H :   -0.000659
   5 H :   -0.001518
   6 C :   -0.156817
   7 O :   -0.468288
   8 H :    0.314022
   9 H :    0.099034
  10 H :    0.113122
  11 H :    0.099342
Sum of atomic charges:    0.0000000

LOEWDIN ATOMIC CHARGES
----------------------
   0 C :   -0.005606
   1 O :   -0.000081
   2 H :   -0.000012
   3 H :   -0.000033
   4 H :   -0.000932
   5 H :   -0.003617
   6 C :   -0.388005
   7 O :   -0.072140
   8 H :    0.172857
   9 H :    0.092998
  10 H :    0.114270
  11 H :    0.090300

  Mayer bond orders larger than 0.1
B(  6-C ,  7-O ) :   1.0038 B(  6-C ,  9-H ) :   0.9903 B(  6-C , 10-H ) :   0.9719
B(  6-C , 11-H ) :   0.9762 B(  7-O ,  8-H ) :   0.9009

Dispersion correction           -0.000206658
FINAL SINGLE POINT ENERGY      -115.734212964785

DIPOLE MOMENT
-------------
                                X             Y             Z
Electronic contribution:      0.99843       1.46647       0.18218
Nuclear contribution   :     -1.10992      -1.88260      -0.74669
                        -----------------------------------------
Total Dipole Moment    :     -0.11149      -0.41613      -0.56451
                        -----------------------------------------
Magnitude (a.u.)       :      0.71011
Magnitude (Debye)      :      1.80496

Rotational constants in cm-1:     4.278373     0.854864     0.821761
Rotational constants in MHz : 128262.396379 25628.182729 24635.782634

                             ****ORCA TERMINATED NORMALLY****
TOTAL RUN TIME: 0 days 0 hours 0 minutes 51 seconds 827 msec
