                         Program Version 4.1.2  - RELEASE  -
|  1> #Run DFT-D3 single point of the dimer
|  2> ! wB97X-D3 def2-TZVP TIGHTSCF CHELPG PMODEL PAL8
|  3>
|  4> %base "21-105_DFT_AB"
|  5>
|  6> %scf
|  7> MaxIter 1000
|  8> end
|  9>
| 10> * xyz 0 1
| 11>   C                      3.968792             8.387656             10.579955
| 12>   O                      3.086890             7.272689             10.231642
| 13>   H                      2.188274             7.650745             10.307865
| 14>   H                      3.545260             8.992403             11.442318
| 15>   H                      4.988270             8.027184             10.820508
| 16>   H                      4.116574             8.997618             9.652648
| 17>   C                      7.357222             8.664610             8.577842
| 18>   O                      8.341344             9.438455             9.221275
| 19>   H                      8.396129             9.071464             10.092115
| 20>   H                      6.369099             8.655715             9.058863
| 21>   H                      7.276630             9.035649             7.549141
| 22>   H                      7.770740             7.686025             8.453285
| 23> *
| 24>
| 25> #Run DFT-D3 single point of the molecule with dimer basis set
| 26> $new_job
| 27> %base "21-105_DFT_A"
| 28> ! wB97X-D3 def2-TZVP TIGHTSCF CHELPG PMODEL
| 29>
| 30> %scf
| 31> MaxIter 1000
| 32> end
| 33>
| 34> * xyz 0 1
| 35>   C                      3.968792             8.387656             10.579955
| 36>   O                      3.086890             7.272689             10.231642
| 37>   H                      2.188274             7.650745             10.307865
| 38>   H                      3.545260             8.992403             11.442318
| 39>   H                      4.988270             8.027184             10.820508
| 40>   H                      4.116574             8.997618             9.652648
| 41>   C                    : 7.357222             8.664610             8.577842
| 42>   O                    : 8.341344             9.438455             9.221275
| 43>   H                    : 8.396129             9.071464             10.092115
| 44>   H                    : 6.369099             8.655715             9.058863
| 45>   H                    : 7.276630             9.035649             7.549141
| 46>   H                    : 7.770740             7.686025             8.453285
| 47> *
| 48>
| 49> #Run DFT-D3 single point of the particle with dimer basis set
| 50> $new_job
| 51> %base "21-105_DFT_B"
| 52> ! wB97X-D3 def2-TZVP TIGHTSCF CHELPG PMODEL
| 53>
| 54> %scf
| 55> MaxIter 1000
| 56> end
| 57>
| 58> * xyz 0 1
| 59>   C                    : 3.968792             8.387656             10.579955
| 60>   O                    : 3.086890             7.272689             10.231642
| 61>   H                    : 2.188274             7.650745             10.307865
| 62>   H                    : 3.545260             8.992403             11.442318
| 63>   H                    : 4.988270             8.027184             10.820508
| 64>   H                    : 4.116574             8.997618             9.652648
| 65>   C                      7.357222             8.664610             8.577842
| 66>   O                      8.341344             9.438455             9.221275
| 67>   H                      8.396129             9.071464             10.092115
| 68>   H                      6.369099             8.655715             9.058863
| 69>   H                      7.276630             9.035649             7.549141
| 70>   H                      7.770740             7.686025             8.453285
| 71> *
| 72>
| 73>                          ****END OF INPUT****
 Total Charge           Charge          ....    0
 Multiplicity           Mult            ....    1
 Number of Electrons    NEL             ....   36
Dispersion correction           -0.001361585
FINAL SINGLE POINT ENERGY      -231.466142116207
Dispersion correction           -0.000261526
FINAL SINGLE POINT ENERGY      -115.731824270494

CARTESIAN COORDINATES (ANGSTROEM)
---------------------------------
  C      3.968792    8.387656   10.579955
  O      3.086890    7.272689   10.231642
  H      2.188274    7.650745   10.307865
  H      3.545260    8.992403   11.442318
  H      4.988270    8.027184   10.820508
  H      4.116574    8.997618    9.652648
  C      7.357222    8.664610    8.577842
  O      8.341344    9.438455    9.221275
  H      8.396129    9.071464   10.092115
  H      6.369099    8.655715    9.058863
  H      7.276630    9.035649    7.549141
  H      7.770740    7.686025    8.453285

 Multiplicity           Mult            ....    1
 Number of Electrons    NEL             ....   18
 Basis Dimension        Dim             ....  172

ORBITAL ENERGIES
----------------

  NO   OCC          E(Eh)            E(eV)
   0   2.0000     -19.228110      -523.2235
   1   2.0000     -10.309323      -280.5309
   2   2.0000      -1.142677       -31.0938
   3   2.0000      -0.795258       -21.6401
   4   2.0000      -0.610474       -16.6118
   5   2.0000      -0.550747       -14.9866
   6   2.0000      -0.524523       -14.2730
   7   2.0000      -0.435268       -11.8442
   8   2.0000      -0.374357       -10.1868
   9   0.0000       0.082461         2.2439
  10   0.0000       0.117853         3.2070
  11   0.0000       0.157361         4.2820
  12   0.0000       0.172907         4.7050
  13   0.0000       0.186709         5.0806

MULLIKEN ATOMIC CHARGES
-----------------------
   0 C :    0.000129
   1 O :    0.000249
   2 H :    0.000027
   3 H :   -0.000117
   4 H :    0.000647
   5 H :   -0.000633
   6 C :   -0.166709
   7 O :   -0.465565
   8 H :    0.309772
   9 H :    0.099027
  10 H :    0.115485
  11 H :    0.107688
Sum of atomic charges:    0.0000000

LOEWDIN ATOMIC CHARGES
----------------------
   0 C :   -0.007665
   1 O :   -0.000009
   2 H :   -0.000005
   3 H :   -0.000067
   4 H :   -0.003532
   5 H :   -0.003680
   6 C :   -0.386731
   7 O :   -0.065515
   8 H :    0.160963
   9 H :    0.102678
  10 H :    0.111209
  11 H :    0.092354

  Mayer bond orders larger than 0.1
B(  6-C ,  7-O ) :   0.9954 B(  6-C ,  9-H ) :   0.9701 B(  6-C , 10-H ) :   0.9726
B(  6-C , 11-H ) :   0.9873 B(  7-O ,  8-H ) :   0.9060

Dispersion correction           -0.000220037
FINAL SINGLE POINT ENERGY      -115.734174253849

DIPOLE MOMENT
-------------
                                X             Y             Z
Electronic contribution:      1.18764       1.07914       0.78926
Nuclear contribution   :     -1.52223      -1.61607      -0.51071
                        -----------------------------------------
Total Dipole Moment    :     -0.33459      -0.53693       0.27855
                        -----------------------------------------
Magnitude (a.u.)       :      0.69125
Magnitude (Debye)      :      1.75703

Rotational constants in cm-1:     4.290532     0.846635     0.817578
Rotational constants in MHz : 128626.902623 25381.469263 24510.369402

                             ****ORCA TERMINATED NORMALLY****
TOTAL RUN TIME: 0 days 0 hours 0 minutes 58 seconds 684 msec
