                         Program Version 4.1.2  - RELEASE  -
|  1> #Run DFT-D3 single point of the dimer
|  2> ! wB97X-D3 def2-TZVP TIGHTSCF CHELPG PMODEL PAL8
|  3>
|  4> %base "15-66_DFT_AB"
|  5>
|  6> %scf
|  7> MaxIter 1000
|  8> end
|  9>
| 10> * xyz 0 1
| 11>   C                      0.395747             0.499302             3.166637
| 12>   O                      -0.741435            1.109411             2.820772
| 13>   H                      -1.443136            0.800324             3.428644
| 14>   H                      0.572906             0.753819             4.234277
| 15>   H                      0.320529             -0.597235            3.056164
| 16>   H                      1.203881             0.845296             2.442496
| 17>   C                      -3.576433            -1.771831            2.747037
| 18>   O                      -2.734176            -0.899747            3.527083
| 19>   H                      -2.879209            -1.164304            4.465910
| 20>   H                      -4.336696            -1.244164            2.101443
| 21>   H                      -3.043277            -2.460273            2.061162
| 22>   H                      -4.105873            -2.381180            3.393778
| 23> *
| 24>
| 25> #Run DFT-D3 single point of the molecule with dimer basis set
| 26> $new_job
| 27> %base "15-66_DFT_A"
| 28> ! wB97X-D3 def2-TZVP TIGHTSCF CHELPG PMODEL
| 29>
| 30> %scf
| 31> MaxIter 1000
| 32> end
| 33>
| 34> * xyz 0 1
| 35>   C                      0.395747             0.499302             3.166637
| 36>   O                      -0.741435            1.109411             2.820772
| 37>   H                      -1.443136            0.800324             3.428644
| 38>   H                      0.572906             0.753819             4.234277
| 39>   H                      0.320529             -0.597235            3.056164
| 40>   H                      1.203881             0.845296             2.442496
| 41>   C                    : -3.576433            -1.771831            2.747037
| 42>   O                    : -2.734176            -0.899747            3.527083
| 43>   H                    : -2.879209            -1.164304            4.465910
| 44>   H                    : -4.336696            -1.244164            2.101443
| 45>   H                    : -3.043277            -2.460273            2.061162
| 46>   H                    : -4.105873            -2.381180            3.393778
| 47> *
| 48>
| 49> #Run DFT-D3 single point of the particle with dimer basis set
| 50> $new_job
| 51> %base "15-66_DFT_B"
| 52> ! wB97X-D3 def2-TZVP TIGHTSCF CHELPG PMODEL
| 53>
| 54> %scf
| 55> MaxIter 1000
| 56> end
| 57>
| 58> * xyz 0 1
| 59>   C                    : 0.395747             0.499302             3.166637
| 60>   O                    : -0.741435            1.109411             2.820772
| 61>   H                    : -1.443136            0.800324             3.428644
| 62>   H                    : 0.572906             0.753819             4.234277
| 63>   H                    : 0.320529             -0.597235            3.056164
| 64>   H                    : 1.203881             0.845296             2.442496
| 65>   C                      -3.576433            -1.771831            2.747037
| 66>   O                      -2.734176            -0.899747            3.527083
| 67>   H                      -2.879209            -1.164304            4.465910
| 68>   H                      -4.336696            -1.244164            2.101443
| 69>   H                      -3.043277            -2.460273            2.061162
| 70>   H                      -4.105873            -2.381180            3.393778
| 71> *
| 72>
| 73>                          ****END OF INPUT****
 Total Charge           Charge          ....    0
 Multiplicity           Mult            ....    1
 Number of Electrons    NEL             ....   36
Dispersion correction           -0.001631176
FINAL SINGLE POINT ENERGY      -231.462780227898
Dispersion correction           -0.000199292
FINAL SINGLE POINT ENERGY      -115.728631646813

CARTESIAN COORDINATES (ANGSTROEM)
---------------------------------
  C      0.395747    0.499302    3.166637
  O     -0.741435    1.109411    2.820772
  H     -1.443136    0.800324    3.428644
  H      0.572906    0.753819    4.234277
  H      0.320529   -0.597235    3.056164
  H      1.203881    0.845296    2.442496
  C     -3.576433   -1.771831    2.747037
  O     -2.734176   -0.899747    3.527083
  H     -2.879209   -1.164304    4.465910
  H     -4.336696   -1.244164    2.101443
  H     -3.043277   -2.460273    2.061162
  H     -4.105873   -2.381180    3.393778

 Multiplicity           Mult            ....    1
 Number of Electrons    NEL             ....   18
 Basis Dimension        Dim             ....  172

ORBITAL ENERGIES
----------------

  NO   OCC          E(Eh)            E(eV)
   0   2.0000     -19.236898      -523.4626
   1   2.0000     -10.314854      -280.6814
   2   2.0000      -1.127014       -30.6676
   3   2.0000      -0.796989       -21.6872
   4   2.0000      -0.609749       -16.5921
   5   2.0000      -0.531789       -14.4707
   6   2.0000      -0.528008       -14.3678
   7   2.0000      -0.437938       -11.9169
   8   2.0000      -0.375909       -10.2290
   9   0.0000       0.097072         2.6415
  10   0.0000       0.122708         3.3390
  11   0.0000       0.147433         4.0119
  12   0.0000       0.191876         5.2212
  13   0.0000       0.196437         5.3453

MULLIKEN ATOMIC CHARGES
-----------------------
   0 C :    0.002880
   1 O :    0.001580
   2 H :   -0.009942
   3 H :   -0.000481
   4 H :   -0.005258
   5 H :   -0.000249
   6 C :   -0.172910
   7 O :   -0.460054
   8 H :    0.318826
   9 H :    0.109873
  10 H :    0.108709
  11 H :    0.107025
Sum of atomic charges:    0.0000000

LOEWDIN ATOMIC CHARGES
----------------------
   0 C :   -0.005829
   1 O :   -0.005095
   2 H :   -0.026813
   3 H :   -0.000144
   4 H :   -0.002778
   5 H :   -0.000069
   6 C :   -0.368162
   7 O :   -0.071354
   8 H :    0.186571
   9 H :    0.107555
  10 H :    0.102276
  11 H :    0.083841

  Mayer bond orders larger than 0.1
B(  6-C ,  7-O ) :   1.0157 B(  6-C ,  9-H ) :   0.9741 B(  6-C , 10-H ) :   0.9729
B(  6-C , 11-H ) :   0.9865 B(  7-O ,  8-H ) :   0.8958

Dispersion correction           -0.000264596
FINAL SINGLE POINT ENERGY      -115.729076336764

DIPOLE MOMENT
-------------
                                X             Y             Z
Electronic contribution:      1.16142       1.20922       0.91730
Nuclear contribution   :     -1.62059      -1.76091      -0.60821
                        -----------------------------------------
Total Dipole Moment    :     -0.45917      -0.55169       0.30909
                        -----------------------------------------
Magnitude (a.u.)       :      0.78149
Magnitude (Debye)      :      1.98640

Rotational constants in cm-1:     4.376382     0.796381     0.771462
Rotational constants in MHz : 131200.626928 23874.896692 23127.850374

                             ****ORCA TERMINATED NORMALLY****
TOTAL RUN TIME: 0 days 0 hours 1 minutes 1 seconds 784 msec
