                         Program Version 4.1.2  - RELEASE  -
|  1> #Run DFT-D3 single point of the dimer
|  2> ! wB97X-D3 def2-TZVP TIGHTSCF CHELPG PMODEL PAL8
|  3>
|  4> %base "4-1_DFT_AB"
|  5>
|  6> %scf
|  7> MaxIter 1000
|  8> end
|  9>
| 10> * xyz 0 1
| 11>   C                      9.510002             3.753170             -5.325528
| 12>   O                      9.876401             4.225670             -4.068210
| 13>   H                      10.364098            5.018810             -4.265636
| 14>   H                      8.978419             2.857762             -5.197583
| 15>   H                      8.779346             4.325251             -5.874902
| 16>   H                      10.363160            3.582555             -6.031037
| 17>   C                      7.497052             2.270548             -2.229564
| 18>   O                      7.274644             2.219434             -0.824995
| 19>   H                      7.353373             3.087960             -0.498924
| 20>   H                      6.908298             1.511459             -2.771878
| 21>   H                      7.202090             3.245681             -2.504666
| 22>   H                      8.554469             2.117082             -2.447961
| 23> *
| 24>
| 25> #Run DFT-D3 single point of the molecule with dimer basis set
| 26> $new_job
| 27> %base "4-1_DFT_A"
| 28> ! wB97X-D3 def2-TZVP TIGHTSCF CHELPG PMODEL
| 29>
| 30> %scf
| 31> MaxIter 1000
| 32> end
| 33>
| 34> * xyz 0 1
| 35>   C                      9.510002             3.753170             -5.325528
| 36>   O                      9.876401             4.225670             -4.068210
| 37>   H                      10.364098            5.018810             -4.265636
| 38>   H                      8.978419             2.857762             -5.197583
| 39>   H                      8.779346             4.325251             -5.874902
| 40>   H                      10.363160            3.582555             -6.031037
| 41>   C                    : 7.497052             2.270548             -2.229564
| 42>   O                    : 7.274644             2.219434             -0.824995
| 43>   H                    : 7.353373             3.087960             -0.498924
| 44>   H                    : 6.908298             1.511459             -2.771878
| 45>   H                    : 7.202090             3.245681             -2.504666
| 46>   H                    : 8.554469             2.117082             -2.447961
| 47> *
| 48>
| 49> #Run DFT-D3 single point of the particle with dimer basis set
| 50> $new_job
| 51> %base "4-1_DFT_B"
| 52> ! wB97X-D3 def2-TZVP TIGHTSCF CHELPG PMODEL
| 53>
| 54> %scf
| 55> MaxIter 1000
| 56> end
| 57>
| 58> * xyz 0 1
| 59>   C                    : 9.510002             3.753170             -5.325528
| 60>   O                    : 9.876401             4.225670             -4.068210
| 61>   H                    : 10.364098            5.018810             -4.265636
| 62>   H                    : 8.978419             2.857762             -5.197583
| 63>   H                    : 8.779346             4.325251             -5.874902
| 64>   H                    : 10.363160            3.582555             -6.031037
| 65>   C                      7.497052             2.270548             -2.229564
| 66>   O                      7.274644             2.219434             -0.824995
| 67>   H                      7.353373             3.087960             -0.498924
| 68>   H                      6.908298             1.511459             -2.771878
| 69>   H                      7.202090             3.245681             -2.504666
| 70>   H                      8.554469             2.117082             -2.447961
| 71> *
| 72>
| 73>                          ****END OF INPUT****
 Total Charge           Charge          ....    0
 Multiplicity           Mult            ....    1
 Number of Electrons    NEL             ....   36
Dispersion correction           -0.001598710
FINAL SINGLE POINT ENERGY      -231.466392103511
Dispersion correction           -0.000233802
FINAL SINGLE POINT ENERGY      -115.732339332980

CARTESIAN COORDINATES (ANGSTROEM)
---------------------------------
  C      9.510002    3.753170   -5.325528
  O      9.876401    4.225670   -4.068210
  H     10.364098    5.018810   -4.265636
  H      8.978419    2.857762   -5.197583
  H      8.779346    4.325251   -5.874902
  H     10.363160    3.582555   -6.031037
  C      7.497052    2.270548   -2.229564
  O      7.274644    2.219434   -0.824995
  H      7.353373    3.087960   -0.498924
  H      6.908298    1.511459   -2.771878
  H      7.202090    3.245681   -2.504666
  H      8.554469    2.117082   -2.447961

 Multiplicity           Mult            ....    1
 Number of Electrons    NEL             ....   18
 Basis Dimension        Dim             ....  172

ORBITAL ENERGIES
----------------

  NO   OCC          E(Eh)            E(eV)
   0   2.0000     -19.223014      -523.0848
   1   2.0000     -10.311007      -280.5768
   2   2.0000      -1.138641       -30.9840
   3   2.0000      -0.798500       -21.7283
   4   2.0000      -0.612069       -16.6552
   5   2.0000      -0.544731       -14.8229
   6   2.0000      -0.533036       -14.5046
   7   2.0000      -0.432305       -11.7636
   8   2.0000      -0.372691       -10.1414
   9   0.0000       0.080480         2.1900
  10   0.0000       0.117056         3.1853
  11   0.0000       0.151596         4.1251
  12   0.0000       0.165800         4.5116
  13   0.0000       0.183019         4.9802

MULLIKEN ATOMIC CHARGES
-----------------------
   0 C :   -0.001631
   1 O :   -0.000471
   2 H :   -0.000094
   3 H :    0.000412
   4 H :    0.000070
   5 H :    0.000006
   6 C :   -0.147352
   7 O :   -0.473836
   8 H :    0.308630
   9 H :    0.114886
  10 H :    0.098130
  11 H :    0.101250
Sum of atomic charges:    0.0000000

LOEWDIN ATOMIC CHARGES
----------------------
   0 C :   -0.002537
   1 O :   -0.001687
   2 H :   -0.000087
   3 H :   -0.001116
   4 H :   -0.000042
   5 H :   -0.000024
   6 C :   -0.364478
   7 O :   -0.073266
   8 H :    0.148349
   9 H :    0.108416
  10 H :    0.089863
  11 H :    0.096610

  Mayer bond orders larger than 0.1
B(  6-C ,  7-O ) :   1.0041 B(  6-C ,  9-H ) :   0.9700 B(  6-C , 10-H ) :   0.9959
B(  6-C , 11-H ) :   0.9738 B(  7-O ,  8-H ) :   0.9085

Dispersion correction           -0.000223534
FINAL SINGLE POINT ENERGY      -115.732331604182

DIPOLE MOMENT
-------------
                                X             Y             Z
Electronic contribution:     -0.31313      -0.21921       1.68642
Nuclear contribution   :      0.43970       0.81669      -2.05193
                        -----------------------------------------
Total Dipole Moment    :      0.12657       0.59747      -0.36551
                        -----------------------------------------
Magnitude (a.u.)       :      0.71175
Magnitude (Debye)      :      1.80913

Rotational constants in cm-1:     4.352283     0.833762     0.805391
Rotational constants in MHz : 130478.169208 24995.541176 24145.028870

                             ****ORCA TERMINATED NORMALLY****
TOTAL RUN TIME: 0 days 0 hours 1 minutes 33 seconds 418 msec
