                         Program Version 4.1.2  - RELEASE  -
|  1> #Run DFT-D3 single point of the dimer
|  2> ! wB97X-D3 def2-TZVP TIGHTSCF  CHELPG PAL8
|  3>
|  4> %base "19_charges"
|  5>
|  6> %scf
|  7> MaxIter 1000
|  8> end
|  9> %output
| 10>   Print[ P_Mayer ] 1
| 11>   Print[ P_NatPop ] 1
| 12>   Print[ P_Hirshfeld ] 1
| 13>   Print[ P_Mulliken ] 1
| 14>   Print [ P_Loewdin ] 1
| 15> end
| 16>
| 17> * xyz 0 1
| 18>   C                      9.446703             9.113125             -1.433073
| 19>   O                      9.587866             9.046910             -2.804152
| 20>   H                      8.826963             8.507085             -3.071600
| 21>   H                      9.008932             8.193179             -0.975686
| 22>   H                      10.447860            9.206952             -1.038904
| 23>   H                      8.783761             9.965070             -1.146152
| 24> *
| 25>
| 26>                          ****END OF INPUT****

CARTESIAN COORDINATES (ANGSTROEM)
---------------------------------
  C      9.446703    9.113125   -1.433073
  O      9.587866    9.046910   -2.804152
  H      8.826963    8.507085   -3.071600
  H      9.008932    8.193179   -0.975686
  H     10.447860    9.206952   -1.038904
  H      8.783761    9.965070   -1.146152

 Total Charge           Charge          ....    0
 Multiplicity           Mult            ....    1
 Number of Electrons    NEL             ....   18
 Basis Dimension        Dim             ....   86

ORBITAL ENERGIES
----------------

  NO   OCC          E(Eh)            E(eV)
   0   2.0000     -19.232242      -523.3359
   1   2.0000     -10.312445      -280.6159
   2   2.0000      -1.149690       -31.2847
   3   2.0000      -0.787363       -21.4252
   4   2.0000      -0.616866       -16.7858
   5   2.0000      -0.547745       -14.9049
   6   2.0000      -0.524314       -14.2673
   7   2.0000      -0.436704       -11.8833
   8   2.0000      -0.371650       -10.1131
   9   0.0000       0.111624         3.0374
  10   0.0000       0.159273         4.3340
  11   0.0000       0.193735         5.2718
  12   0.0000       0.207352         5.6423
  13   0.0000       0.235233         6.4010

MULLIKEN ATOMIC CHARGES
-----------------------
   0 C :   -0.168393
   1 O :   -0.454721
   2 H :    0.316244
   3 H :    0.095805
   4 H :    0.115648
   5 H :    0.095418
Sum of atomic charges:    0.0000000

LOEWDIN ATOMIC CHARGES
----------------------
   0 C :   -0.421163
   1 O :   -0.056223
   2 H :    0.180839
   3 H :    0.096179
   4 H :    0.103593
   5 H :    0.096775

  Mayer bond orders larger than 0.1
B(  0-C ,  1-O ) :   1.0090 B(  0-C ,  3-H ) :   0.9799 B(  0-C ,  4-H ) :   0.9765
B(  0-C ,  5-H ) :   0.9722 B(  1-O ,  2-H ) :   0.9003

Dispersion correction           -0.000219261
FINAL SINGLE POINT ENERGY      -115.733033960555

DIPOLE MOMENT
-------------
                                X             Y             Z
Electronic contribution:      0.34461       0.01546      -1.82905
Nuclear contribution   :     -0.85304      -0.35199       2.14907
                        -----------------------------------------
Total Dipole Moment    :     -0.50842      -0.33653       0.32002
                        -----------------------------------------
Magnitude (a.u.)       :      0.68860
Magnitude (Debye)      :      1.75027

Rotational constants in cm-1:     4.131028     0.871317     0.840206
Rotational constants in MHz : 123845.095698 26121.430813 25188.756012

                             ****ORCA TERMINATED NORMALLY****
TOTAL RUN TIME: 0 days 0 hours 0 minutes 41 seconds 494 msec
