                         Program Version 4.1.2  - RELEASE  -
|  1> #Run DFT-D3 single point of the dimer
|  2> ! wB97X-D3 def2-TZVP TIGHTSCF CHELPG PMODEL PAL8
|  3>
|  4> %base "15-58_DFT_AB"
|  5>
|  6> %scf
|  7> MaxIter 1000
|  8> end
|  9>
| 10> * xyz 0 1
| 11>   C                      6.149197             0.279348             -9.433511
| 12>   O                      5.689921             -0.889510            -10.169131
| 13>   H                      5.935280             -1.668389            -9.656727
| 14>   H                      7.211657             0.500550             -9.393534
| 15>   H                      5.712407             1.245952             -9.815995
| 16>   H                      5.875382             0.154037             -8.369263
| 17>   C                      6.835082             3.846317             -8.826568
| 18>   O                      7.782450             3.576878             -9.885194
| 19>   H                      8.552816             3.207707             -9.439110
| 20>   H                      6.576839             2.941924             -8.234913
| 21>   H                      7.180840             4.703544             -8.205151
| 22>   H                      5.885759             4.173400             -9.286453
| 23> *
| 24>
| 25> #Run DFT-D3 single point of the molecule with dimer basis set
| 26> $new_job
| 27> %base "15-58_DFT_A"
| 28> ! wB97X-D3 def2-TZVP TIGHTSCF CHELPG PMODEL
| 29>
| 30> %scf
| 31> MaxIter 1000
| 32> end
| 33>
| 34> * xyz 0 1
| 35>   C                      6.149197             0.279348             -9.433511
| 36>   O                      5.689921             -0.889510            -10.169131
| 37>   H                      5.935280             -1.668389            -9.656727
| 38>   H                      7.211657             0.500550             -9.393534
| 39>   H                      5.712407             1.245952             -9.815995
| 40>   H                      5.875382             0.154037             -8.369263
| 41>   C                    : 6.835082             3.846317             -8.826568
| 42>   O                    : 7.782450             3.576878             -9.885194
| 43>   H                    : 8.552816             3.207707             -9.439110
| 44>   H                    : 6.576839             2.941924             -8.234913
| 45>   H                    : 7.180840             4.703544             -8.205151
| 46>   H                    : 5.885759             4.173400             -9.286453
| 47> *
| 48>
| 49> #Run DFT-D3 single point of the particle with dimer basis set
| 50> $new_job
| 51> %base "15-58_DFT_B"
| 52> ! wB97X-D3 def2-TZVP TIGHTSCF CHELPG PMODEL
| 53>
| 54> %scf
| 55> MaxIter 1000
| 56> end
| 57>
| 58> * xyz 0 1
| 59>   C                    : 6.149197             0.279348             -9.433511
| 60>   O                    : 5.689921             -0.889510            -10.169131
| 61>   H                    : 5.935280             -1.668389            -9.656727
| 62>   H                    : 7.211657             0.500550             -9.393534
| 63>   H                    : 5.712407             1.245952             -9.815995
| 64>   H                    : 5.875382             0.154037             -8.369263
| 65>   C                      6.835082             3.846317             -8.826568
| 66>   O                      7.782450             3.576878             -9.885194
| 67>   H                      8.552816             3.207707             -9.439110
| 68>   H                      6.576839             2.941924             -8.234913
| 69>   H                      7.180840             4.703544             -8.205151
| 70>   H                      5.885759             4.173400             -9.286453
| 71> *
| 72>
| 73>                          ****END OF INPUT****
 Total Charge           Charge          ....    0
 Multiplicity           Mult            ....    1
 Number of Electrons    NEL             ....   36
Dispersion correction           -0.001916359
FINAL SINGLE POINT ENERGY      -231.467080651849
Dispersion correction           -0.000278538
FINAL SINGLE POINT ENERGY      -115.730591851113

CARTESIAN COORDINATES (ANGSTROEM)
---------------------------------
  C      6.149197    0.279348   -9.433511
  O      5.689921   -0.889510  -10.169131
  H      5.935280   -1.668389   -9.656727
  H      7.211657    0.500550   -9.393534
  H      5.712407    1.245952   -9.815995
  H      5.875382    0.154037   -8.369263
  C      6.835082    3.846317   -8.826568
  O      7.782450    3.576878   -9.885194
  H      8.552816    3.207707   -9.439110
  H      6.576839    2.941924   -8.234913
  H      7.180840    4.703544   -8.205151
  H      5.885759    4.173400   -9.286453

 Multiplicity           Mult            ....    1
 Number of Electrons    NEL             ....   18
 Basis Dimension        Dim             ....  172

ORBITAL ENERGIES
----------------

  NO   OCC          E(Eh)            E(eV)
   0   2.0000     -19.233013      -523.3569
   1   2.0000     -10.320645      -280.8390
   2   2.0000      -1.128686       -30.7131
   3   2.0000      -0.791961       -21.5503
   4   2.0000      -0.600601       -16.3432
   5   2.0000      -0.542608       -14.7651
   6   2.0000      -0.519785       -14.1441
   7   2.0000      -0.435465       -11.8496
   8   2.0000      -0.377593       -10.2748
   9   0.0000       0.083523         2.2728
  10   0.0000       0.123383         3.3574
  11   0.0000       0.147321         4.0088
  12   0.0000       0.175874         4.7858
  13   0.0000       0.187584         5.1044

MULLIKEN ATOMIC CHARGES
-----------------------
   0 C :    0.006160
   1 O :    0.000029
   2 H :   -0.000001
   3 H :   -0.007560
   4 H :    0.000749
   5 H :   -0.000564
   6 C :   -0.189634
   7 O :   -0.472259
   8 H :    0.313843
   9 H :    0.109169
  10 H :    0.119414
  11 H :    0.120654
Sum of atomic charges:    0.0000000

LOEWDIN ATOMIC CHARGES
----------------------
   0 C :   -0.007590
   1 O :   -0.000031
   2 H :   -0.000007
   3 H :   -0.002799
   4 H :   -0.002961
   5 H :   -0.000743
   6 C :   -0.371327
   7 O :   -0.097076
   8 H :    0.169034
   9 H :    0.101671
  10 H :    0.100816
  11 H :    0.111013

  Mayer bond orders larger than 0.1
B(  6-C ,  7-O ) :   0.9922 B(  6-C ,  9-H ) :   0.9713 B(  6-C , 10-H ) :   0.9751
B(  6-C , 11-H ) :   0.9753 B(  7-O ,  8-H ) :   0.9014

Dispersion correction           -0.000256523
FINAL SINGLE POINT ENERGY      -115.735642242233

DIPOLE MOMENT
-------------
                                X             Y             Z
Electronic contribution:      1.14616      -0.31906      -1.39991
Nuclear contribution   :     -1.06658       0.20887       2.09107
                        -----------------------------------------
Total Dipole Moment    :      0.07959      -0.11019       0.69116
                        -----------------------------------------
Magnitude (a.u.)       :      0.70440
Magnitude (Debye)      :      1.79044

Rotational constants in cm-1:     4.153563     0.797729     0.776898
Rotational constants in MHz : 124520.682035 23915.307767 23290.824030

                             ****ORCA TERMINATED NORMALLY****
TOTAL RUN TIME: 0 days 0 hours 0 minutes 56 seconds 162 msec
