                         Program Version 4.1.2  - RELEASE  -
|  1> #Run DFT-D3 single point of the dimer
|  2> ! wB97X-D3 def2-TZVP TIGHTSCF CHELPG PMODEL PAL8
|  3>
|  4> %base "14-0_DFT_AB"
|  5>
|  6> %scf
|  7> MaxIter 1000
|  8> end
|  9>
| 10> * xyz 0 1
| 11>   C                      2.263257             -4.148155            5.412082
| 12>   O                      2.954997             -4.750595            6.535683
| 13>   H                      3.854224             -4.751128            6.203519
| 14>   H                      2.189910             -3.055356            5.686844
| 15>   H                      2.686634             -4.323060            4.395248
| 16>   H                      1.297417             -4.690642            5.387383
| 17>   C                      3.000813             -5.041228            10.565533
| 18>   O                      2.407379             -6.339526            10.869800
| 19>   H                      2.625145             -6.452515            11.794935
| 20>   H                      2.971662             -4.819013            9.434081
| 21>   H                      2.508815             -4.257876            11.166867
| 22>   H                      4.081495             -5.035408            10.772645
| 23> *
| 24>
| 25> #Run DFT-D3 single point of the molecule with dimer basis set
| 26> $new_job
| 27> %base "14-0_DFT_A"
| 28> ! wB97X-D3 def2-TZVP TIGHTSCF CHELPG PMODEL
| 29>
| 30> %scf
| 31> MaxIter 1000
| 32> end
| 33>
| 34> * xyz 0 1
| 35>   C                      2.263257             -4.148155            5.412082
| 36>   O                      2.954997             -4.750595            6.535683
| 37>   H                      3.854224             -4.751128            6.203519
| 38>   H                      2.189910             -3.055356            5.686844
| 39>   H                      2.686634             -4.323060            4.395248
| 40>   H                      1.297417             -4.690642            5.387383
| 41>   C                    : 3.000813             -5.041228            10.565533
| 42>   O                    : 2.407379             -6.339526            10.869800
| 43>   H                    : 2.625145             -6.452515            11.794935
| 44>   H                    : 2.971662             -4.819013            9.434081
| 45>   H                    : 2.508815             -4.257876            11.166867
| 46>   H                    : 4.081495             -5.035408            10.772645
| 47> *
| 48>
| 49> #Run DFT-D3 single point of the particle with dimer basis set
| 50> $new_job
| 51> %base "14-0_DFT_B"
| 52> ! wB97X-D3 def2-TZVP TIGHTSCF CHELPG PMODEL
| 53>
| 54> %scf
| 55> MaxIter 1000
| 56> end
| 57>
| 58> * xyz 0 1
| 59>   C                    : 2.263257             -4.148155            5.412082
| 60>   O                    : 2.954997             -4.750595            6.535683
| 61>   H                    : 3.854224             -4.751128            6.203519
| 62>   H                    : 2.189910             -3.055356            5.686844
| 63>   H                    : 2.686634             -4.323060            4.395248
| 64>   H                    : 1.297417             -4.690642            5.387383
| 65>   C                      3.000813             -5.041228            10.565533
| 66>   O                      2.407379             -6.339526            10.869800
| 67>   H                      2.625145             -6.452515            11.794935
| 68>   H                      2.971662             -4.819013            9.434081
| 69>   H                      2.508815             -4.257876            11.166867
| 70>   H                      4.081495             -5.035408            10.772645
| 71> *
| 72>
| 73>                          ****END OF INPUT****
 Total Charge           Charge          ....    0
 Multiplicity           Mult            ....    1
 Number of Electrons    NEL             ....   36
Dispersion correction           -0.001016686
FINAL SINGLE POINT ENERGY      -231.461006347226
Dispersion correction           -0.000245725
FINAL SINGLE POINT ENERGY      -115.728558394069

CARTESIAN COORDINATES (ANGSTROEM)
---------------------------------
  C      2.263257   -4.148155    5.412082
  O      2.954997   -4.750595    6.535683
  H      3.854224   -4.751128    6.203519
  H      2.189910   -3.055356    5.686844
  H      2.686634   -4.323060    4.395248
  H      1.297417   -4.690642    5.387383
  C      3.000813   -5.041228   10.565533
  O      2.407379   -6.339526   10.869800
  H      2.625145   -6.452515   11.794935
  H      2.971662   -4.819013    9.434081
  H      2.508815   -4.257876   11.166867
  H      4.081495   -5.035408   10.772645

 Multiplicity           Mult            ....    1
 Number of Electrons    NEL             ....   18
 Basis Dimension        Dim             ....  172

ORBITAL ENERGIES
----------------

  NO   OCC          E(Eh)            E(eV)
   0   2.0000     -19.232318      -523.3380
   1   2.0000     -10.325163      -280.9620
   2   2.0000      -1.127643       -30.6847
   3   2.0000      -0.789457       -21.4822
   4   2.0000      -0.600162       -16.3312
   5   2.0000      -0.542495       -14.7620
   6   2.0000      -0.513855       -13.9827
   7   2.0000      -0.438355       -11.9282
   8   2.0000      -0.376738       -10.2516
   9   0.0000       0.084352         2.2953
  10   0.0000       0.115478         3.1423
  11   0.0000       0.145857         3.9690
  12   0.0000       0.171412         4.6644
  13   0.0000       0.186865         5.0848

MULLIKEN ATOMIC CHARGES
-----------------------
   0 C :    0.000102
   1 O :    0.000215
   2 H :   -0.000108
   3 H :   -0.000028
   4 H :   -0.000010
   5 H :   -0.000018
   6 C :   -0.185464
   7 O :   -0.470034
   8 H :    0.312096
   9 H :    0.122222
  10 H :    0.110014
  11 H :    0.111013
Sum of atomic charges:    0.0000000

LOEWDIN ATOMIC CHARGES
----------------------
   0 C :   -0.000193
   1 O :   -0.001682
   2 H :   -0.000265
   3 H :   -0.000016
   4 H :   -0.000004
   5 H :   -0.000009
   6 C :   -0.368472
   7 O :   -0.108244
   8 H :    0.164915
   9 H :    0.120939
  10 H :    0.097291
  11 H :    0.095741

  Mayer bond orders larger than 0.1
B(  6-C ,  7-O ) :   0.9970 B(  6-C ,  9-H ) :   0.9707 B(  6-C , 10-H ) :   0.9740
B(  6-C , 11-H ) :   0.9736 B(  7-O ,  8-H ) :   0.9039

Dispersion correction           -0.000252660
FINAL SINGLE POINT ENERGY      -115.731469170459

DIPOLE MOMENT
-------------
                                X             Y             Z
Electronic contribution:     -0.86242      -1.63789       0.27296
Nuclear contribution   :      1.25827       2.09533       0.17506
                        -----------------------------------------
Total Dipole Moment    :      0.39585       0.45744       0.44801
                        -----------------------------------------
Magnitude (a.u.)       :      0.75277
Magnitude (Debye)      :      1.91339

Rotational constants in cm-1:     4.102978     0.790390     0.760321
Rotational constants in MHz : 123004.174482 23695.295121 22793.836920

                             ****ORCA TERMINATED NORMALLY****
TOTAL RUN TIME: 0 days 0 hours 0 minutes 53 seconds 344 msec
