                         Program Version 4.1.2  - RELEASE  -
|  1> #Run DFT-D3 single point of the dimer
|  2> ! wB97X-D3 def2-TZVP TIGHTSCF CHELPG PMODEL PAL8
|  3>
|  4> %base "19-86_DFT_AB"
|  5>
|  6> %scf
|  7> MaxIter 1000
|  8> end
|  9>
| 10> * xyz 0 1
| 11>   C                      1.790265             3.458561             8.299905
| 12>   O                      0.760315             4.348827             7.951540
| 13>   H                      0.700689             4.320397             6.985783
| 14>   H                      2.747720             4.048782             8.453165
| 15>   H                      1.540345             2.807398             9.173545
| 16>   H                      2.017215             2.823354             7.489023
| 17>   C                      1.550472             2.691775             3.242156
| 18>   O                      0.851878             2.735374             1.989813
| 19>   H                      -0.067199            2.404889             2.121764
| 20>   H                      0.871757             2.590793             4.113144
| 21>   H                      2.285522             1.838047             3.182843
| 22>   H                      2.106612             3.612805             3.357390
| 23> *
| 24>
| 25> #Run DFT-D3 single point of the molecule with dimer basis set
| 26> $new_job
| 27> %base "19-86_DFT_A"
| 28> ! wB97X-D3 def2-TZVP TIGHTSCF CHELPG PMODEL
| 29>
| 30> %scf
| 31> MaxIter 1000
| 32> end
| 33>
| 34> * xyz 0 1
| 35>   C                      1.790265             3.458561             8.299905
| 36>   O                      0.760315             4.348827             7.951540
| 37>   H                      0.700689             4.320397             6.985783
| 38>   H                      2.747720             4.048782             8.453165
| 39>   H                      1.540345             2.807398             9.173545
| 40>   H                      2.017215             2.823354             7.489023
| 41>   C                    : 1.550472             2.691775             3.242156
| 42>   O                    : 0.851878             2.735374             1.989813
| 43>   H                    : -0.067199            2.404889             2.121764
| 44>   H                    : 0.871757             2.590793             4.113144
| 45>   H                    : 2.285522             1.838047             3.182843
| 46>   H                    : 2.106612             3.612805             3.357390
| 47> *
| 48>
| 49> #Run DFT-D3 single point of the particle with dimer basis set
| 50> $new_job
| 51> %base "19-86_DFT_B"
| 52> ! wB97X-D3 def2-TZVP TIGHTSCF CHELPG PMODEL
| 53>
| 54> %scf
| 55> MaxIter 1000
| 56> end
| 57>
| 58> * xyz 0 1
| 59>   C                    : 1.790265             3.458561             8.299905
| 60>   O                    : 0.760315             4.348827             7.951540
| 61>   H                    : 0.700689             4.320397             6.985783
| 62>   H                    : 2.747720             4.048782             8.453165
| 63>   H                    : 1.540345             2.807398             9.173545
| 64>   H                    : 2.017215             2.823354             7.489023
| 65>   C                      1.550472             2.691775             3.242156
| 66>   O                      0.851878             2.735374             1.989813
| 67>   H                      -0.067199            2.404889             2.121764
| 68>   H                      0.871757             2.590793             4.113144
| 69>   H                      2.285522             1.838047             3.182843
| 70>   H                      2.106612             3.612805             3.357390
| 71> *
| 72>
| 73>                          ****END OF INPUT****
 Total Charge           Charge          ....    0
 Multiplicity           Mult            ....    1
 Number of Electrons    NEL             ....   36
Dispersion correction           -0.000907801
FINAL SINGLE POINT ENERGY      -231.465361934630
Dispersion correction           -0.000237640
FINAL SINGLE POINT ENERGY      -115.731523454499

CARTESIAN COORDINATES (ANGSTROEM)
---------------------------------
  C      1.790265    3.458561    8.299905
  O      0.760315    4.348827    7.951540
  H      0.700689    4.320397    6.985783
  H      2.747720    4.048782    8.453165
  H      1.540345    2.807398    9.173545
  H      2.017215    2.823354    7.489023
  C      1.550472    2.691775    3.242156
  O      0.851878    2.735374    1.989813
  H     -0.067199    2.404889    2.121764
  H      0.871757    2.590793    4.113144
  H      2.285522    1.838047    3.182843
  H      2.106612    3.612805    3.357390

 Multiplicity           Mult            ....    1
 Number of Electrons    NEL             ....   18
 Basis Dimension        Dim             ....  172

ORBITAL ENERGIES
----------------

  NO   OCC          E(Eh)            E(eV)
   0   2.0000     -19.229863      -523.2712
   1   2.0000     -10.318457      -280.7795
   2   2.0000      -1.123571       -30.5739
   3   2.0000      -0.790796       -21.5187
   4   2.0000      -0.603150       -16.4126
   5   2.0000      -0.536378       -14.5956
   6   2.0000      -0.522652       -14.2221
   7   2.0000      -0.434113       -11.8128
   8   2.0000      -0.370514       -10.0822
   9   0.0000       0.081052         2.2055
  10   0.0000       0.111477         3.0334
  11   0.0000       0.142936         3.8895
  12   0.0000       0.169683         4.6173
  13   0.0000       0.181820         4.9476

MULLIKEN ATOMIC CHARGES
-----------------------
   0 C :    0.000247
   1 O :    0.000020
   2 H :   -0.000402
   3 H :   -0.000014
   4 H :   -0.000007
   5 H :   -0.000313
   6 C :   -0.164221
   7 O :   -0.484263
   8 H :    0.318067
   9 H :    0.105088
  10 H :    0.106007
  11 H :    0.119792
Sum of atomic charges:    0.0000000

LOEWDIN ATOMIC CHARGES
----------------------
   0 C :   -0.000094
   1 O :   -0.000013
   2 H :   -0.000411
   3 H :   -0.000001
   4 H :   -0.000000
   5 H :   -0.000198
   6 C :   -0.375178
   7 O :   -0.108818
   8 H :    0.181005
   9 H :    0.098509
  10 H :    0.104486
  11 H :    0.100713

  Mayer bond orders larger than 0.1
B(  6-C ,  7-O ) :   1.0037 B(  6-C ,  9-H ) :   0.9792 B(  6-C , 10-H ) :   0.9756
B(  6-C , 11-H ) :   0.9736 B(  7-O ,  8-H ) :   0.8962

Dispersion correction           -0.000260684
FINAL SINGLE POINT ENERGY      -115.733818082982

DIPOLE MOMENT
-------------
                                X             Y             Z
Electronic contribution:     -0.79526       0.13679      -1.58085
Nuclear contribution   :      0.47992      -0.34413       2.17875
                        -----------------------------------------
Total Dipole Moment    :     -0.31534      -0.20734       0.59790
                        -----------------------------------------
Magnitude (a.u.)       :      0.70705
Magnitude (Debye)      :      1.79717

Rotational constants in cm-1:     4.131286     0.811331     0.782322
Rotational constants in MHz : 123852.848409 24323.087877 23453.433019

                             ****ORCA TERMINATED NORMALLY****
TOTAL RUN TIME: 0 days 0 hours 0 minutes 51 seconds 992 msec
