                         Program Version 4.1.2  - RELEASE  -
|  1> #Run DFT-D3 single point of the dimer
|  2> ! wB97X-D3 def2-TZVP TIGHTSCF CHELPG PMODEL PAL8
|  3>
|  4> %base "4-4_DFT_AB"
|  5>
|  6> %scf
|  7> MaxIter 1000
|  8> end
|  9>
| 10> * xyz 0 1
| 11>   C                      9.510002             3.753170             -5.325528
| 12>   O                      9.876401             4.225670             -4.068210
| 13>   H                      10.364098            5.018810             -4.265636
| 14>   H                      8.978419             2.857762             -5.197583
| 15>   H                      8.779346             4.325251             -5.874902
| 16>   H                      10.363160            3.582555             -6.031037
| 17>   C                      5.421952             4.296284             -8.629715
| 18>   O                      4.177943             4.330859             -7.945690
| 19>   H                      3.759411             3.478553             -7.920667
| 20>   H                      5.294715             3.661968             -9.550154
| 21>   H                      5.762079             5.348298             -8.977451
| 22>   H                      6.121302             3.829732             -7.913418
| 23> *
| 24>
| 25> #Run DFT-D3 single point of the molecule with dimer basis set
| 26> $new_job
| 27> %base "4-4_DFT_A"
| 28> ! wB97X-D3 def2-TZVP TIGHTSCF CHELPG PMODEL
| 29>
| 30> %scf
| 31> MaxIter 1000
| 32> end
| 33>
| 34> * xyz 0 1
| 35>   C                      9.510002             3.753170             -5.325528
| 36>   O                      9.876401             4.225670             -4.068210
| 37>   H                      10.364098            5.018810             -4.265636
| 38>   H                      8.978419             2.857762             -5.197583
| 39>   H                      8.779346             4.325251             -5.874902
| 40>   H                      10.363160            3.582555             -6.031037
| 41>   C                    : 5.421952             4.296284             -8.629715
| 42>   O                    : 4.177943             4.330859             -7.945690
| 43>   H                    : 3.759411             3.478553             -7.920667
| 44>   H                    : 5.294715             3.661968             -9.550154
| 45>   H                    : 5.762079             5.348298             -8.977451
| 46>   H                    : 6.121302             3.829732             -7.913418
| 47> *
| 48>
| 49> #Run DFT-D3 single point of the particle with dimer basis set
| 50> $new_job
| 51> %base "4-4_DFT_B"
| 52> ! wB97X-D3 def2-TZVP TIGHTSCF CHELPG PMODEL
| 53>
| 54> %scf
| 55> MaxIter 1000
| 56> end
| 57>
| 58> * xyz 0 1
| 59>   C                    : 9.510002             3.753170             -5.325528
| 60>   O                    : 9.876401             4.225670             -4.068210
| 61>   H                    : 10.364098            5.018810             -4.265636
| 62>   H                    : 8.978419             2.857762             -5.197583
| 63>   H                    : 8.779346             4.325251             -5.874902
| 64>   H                    : 10.363160            3.582555             -6.031037
| 65>   C                      5.421952             4.296284             -8.629715
| 66>   O                      4.177943             4.330859             -7.945690
| 67>   H                      3.759411             3.478553             -7.920667
| 68>   H                      5.294715             3.661968             -9.550154
| 69>   H                      5.762079             5.348298             -8.977451
| 70>   H                      6.121302             3.829732             -7.913418
| 71> *
| 72>
| 73>                          ****END OF INPUT****
 Total Charge           Charge          ....    0
 Multiplicity           Mult            ....    1
 Number of Electrons    NEL             ....   36
Dispersion correction           -0.000736687
FINAL SINGLE POINT ENERGY      -231.462254715409
Dispersion correction           -0.000233802
FINAL SINGLE POINT ENERGY      -115.732138242925

CARTESIAN COORDINATES (ANGSTROEM)
---------------------------------
  C      9.510002    3.753170   -5.325528
  O      9.876401    4.225670   -4.068210
  H     10.364098    5.018810   -4.265636
  H      8.978419    2.857762   -5.197583
  H      8.779346    4.325251   -5.874902
  H     10.363160    3.582555   -6.031037
  C      5.421952    4.296284   -8.629715
  O      4.177943    4.330859   -7.945690
  H      3.759411    3.478553   -7.920667
  H      5.294715    3.661968   -9.550154
  H      5.762079    5.348298   -8.977451
  H      6.121302    3.829732   -7.913418

 Multiplicity           Mult            ....    1
 Number of Electrons    NEL             ....   18
 Basis Dimension        Dim             ....  172

ORBITAL ENERGIES
----------------

  NO   OCC          E(Eh)            E(eV)
   0   2.0000     -19.223493      -523.0978
   1   2.0000     -10.325949      -280.9834
   2   2.0000      -1.132580       -30.8191
   3   2.0000      -0.788419       -21.4540
   4   2.0000      -0.605133       -16.4665
   5   2.0000      -0.544939       -14.8286
   6   2.0000      -0.522934       -14.2298
   7   2.0000      -0.422135       -11.4869
   8   2.0000      -0.369881       -10.0650
   9   0.0000       0.085253         2.3199
  10   0.0000       0.114809         3.1241
  11   0.0000       0.145611         3.9623
  12   0.0000       0.165919         4.5149
  13   0.0000       0.192462         5.2371

MULLIKEN ATOMIC CHARGES
-----------------------
   0 C :   -0.000052
   1 O :   -0.000004
   2 H :   -0.000001
   3 H :   -0.000043
   4 H :   -0.000085
   5 H :    0.000002
   6 C :   -0.157329
   7 O :   -0.487296
   8 H :    0.316006
   9 H :    0.101625
  10 H :    0.118050
  11 H :    0.109128
Sum of atomic charges:    0.0000000

LOEWDIN ATOMIC CHARGES
----------------------
   0 C :   -0.000220
   1 O :   -0.000003
   2 H :   -0.000000
   3 H :   -0.000033
   4 H :   -0.000390
   5 H :   -0.000002
   6 C :   -0.386433
   7 O :   -0.088558
   8 H :    0.159315
   9 H :    0.099107
  10 H :    0.119358
  11 H :    0.097859

  Mayer bond orders larger than 0.1
B(  6-C ,  7-O ) :   0.9818 B(  6-C ,  9-H ) :   0.9796 B(  6-C , 10-H ) :   0.9647
B(  6-C , 11-H ) :   0.9786 B(  7-O ,  8-H ) :   0.8966

Dispersion correction           -0.000242407
FINAL SINGLE POINT ENERGY      -115.729939147871

DIPOLE MOMENT
-------------
                                X             Y             Z
Electronic contribution:     -1.48399       0.20194       0.87739
Nuclear contribution   :      1.70679      -0.77483      -1.14782
                        -----------------------------------------
Total Dipole Moment    :      0.22281      -0.57289      -0.27043
                        -----------------------------------------
Magnitude (a.u.)       :      0.67155
Magnitude (Debye)      :      1.70693

Rotational constants in cm-1:     4.057207     0.822319     0.795682
Rotational constants in MHz : 121632.009870 24652.502861 23853.951630

                             ****ORCA TERMINATED NORMALLY****
TOTAL RUN TIME: 0 days 0 hours 1 minutes 34 seconds 51 msec
