                         Program Version 4.1.2  - RELEASE  -
|  1> #Run DFT-D3 single point of the dimer
|  2> ! wB97X-D3 def2-TZVP TIGHTSCF CHELPG PMODEL PAL8
|  3>
|  4> %base "15-52_DFT_AB"
|  5>
|  6> %scf
|  7> MaxIter 1000
|  8> end
|  9>
| 10> * xyz 0 1
| 11>   C                      7.027536             3.700445             1.588677
| 12>   O                      7.121738             4.093266             0.247516
| 13>   H                      7.366341             3.333908             -0.299382
| 14>   H                      8.023769             3.471064             2.076743
| 15>   H                      6.544191             4.464693             2.197487
| 16>   H                      6.420623             2.848499             1.708700
| 17>   C                      5.256442             3.173701             4.330914
| 18>   O                      5.647779             3.333847             5.672779
| 19>   H                      4.899699             3.045901             6.165063
| 20>   H                      5.243303             4.136426             3.826357
| 21>   H                      5.965825             2.565790             3.787552
| 22>   H                      4.380051             2.629932             4.138270
| 23> *
| 24>
| 25> #Run DFT-D3 single point of the molecule with dimer basis set
| 26> $new_job
| 27> %base "15-52_DFT_A"
| 28> ! wB97X-D3 def2-TZVP TIGHTSCF CHELPG PMODEL
| 29>
| 30> %scf
| 31> MaxIter 1000
| 32> end
| 33>
| 34> * xyz 0 1
| 35>   C                      7.027536             3.700445             1.588677
| 36>   O                      7.121738             4.093266             0.247516
| 37>   H                      7.366341             3.333908             -0.299382
| 38>   H                      8.023769             3.471064             2.076743
| 39>   H                      6.544191             4.464693             2.197487
| 40>   H                      6.420623             2.848499             1.708700
| 41>   C                    : 5.256442             3.173701             4.330914
| 42>   O                    : 5.647779             3.333847             5.672779
| 43>   H                    : 4.899699             3.045901             6.165063
| 44>   H                    : 5.243303             4.136426             3.826357
| 45>   H                    : 5.965825             2.565790             3.787552
| 46>   H                    : 4.380051             2.629932             4.138270
| 47> *
| 48>
| 49> #Run DFT-D3 single point of the particle with dimer basis set
| 50> $new_job
| 51> %base "15-52_DFT_B"
| 52> ! wB97X-D3 def2-TZVP TIGHTSCF CHELPG PMODEL
| 53>
| 54> %scf
| 55> MaxIter 1000
| 56> end
| 57>
| 58> * xyz 0 1
| 59>   C                    : 7.027536             3.700445             1.588677
| 60>   O                    : 7.121738             4.093266             0.247516
| 61>   H                    : 7.366341             3.333908             -0.299382
| 62>   H                    : 8.023769             3.471064             2.076743
| 63>   H                    : 6.544191             4.464693             2.197487
| 64>   H                    : 6.420623             2.848499             1.708700
| 65>   C                      5.256442             3.173701             4.330914
| 66>   O                      5.647779             3.333847             5.672779
| 67>   H                      4.899699             3.045901             6.165063
| 68>   H                      5.243303             4.136426             3.826357
| 69>   H                      5.965825             2.565790             3.787552
| 70>   H                      4.380051             2.629932             4.138270
| 71> *
| 72>
| 73>                          ****END OF INPUT****
 Total Charge           Charge          ....    0
 Multiplicity           Mult            ....    1
 Number of Electrons    NEL             ....   36
Dispersion correction           -0.001679937
FINAL SINGLE POINT ENERGY      -231.463944582705
Dispersion correction           -0.000247625
FINAL SINGLE POINT ENERGY      -115.734549426019

CARTESIAN COORDINATES (ANGSTROEM)
---------------------------------
  C      7.027536    3.700445    1.588677
  O      7.121738    4.093266    0.247516
  H      7.366341    3.333908   -0.299382
  H      8.023769    3.471064    2.076743
  H      6.544191    4.464693    2.197487
  H      6.420623    2.848499    1.708700
  C      5.256442    3.173701    4.330914
  O      5.647779    3.333847    5.672779
  H      4.899699    3.045901    6.165063
  H      5.243303    4.136426    3.826357
  H      5.965825    2.565790    3.787552
  H      4.380051    2.629932    4.138270

 Multiplicity           Mult            ....    1
 Number of Electrons    NEL             ....   18
 Basis Dimension        Dim             ....  172

ORBITAL ENERGIES
----------------

  NO   OCC          E(Eh)            E(eV)
   0   2.0000     -19.230786      -523.2963
   1   2.0000     -10.304361      -280.3959
   2   2.0000      -1.145213       -31.1628
   3   2.0000      -0.802533       -21.8380
   4   2.0000      -0.621210       -16.9040
   5   2.0000      -0.541833       -14.7440
   6   2.0000      -0.525825       -14.3084
   7   2.0000      -0.442767       -12.0483
   8   2.0000      -0.373823       -10.1722
   9   0.0000       0.088771         2.4156
  10   0.0000       0.119580         3.2539
  11   0.0000       0.156385         4.2555
  12   0.0000       0.177230         4.8227
  13   0.0000       0.182659         4.9704

MULLIKEN ATOMIC CHARGES
-----------------------
   0 C :   -0.002898
   1 O :    0.000081
   2 H :    0.000004
   3 H :    0.000631
   4 H :    0.001974
   5 H :   -0.000251
   6 C :   -0.185162
   7 O :   -0.454227
   8 H :    0.312537
   9 H :    0.106847
  10 H :    0.106182
  11 H :    0.114282
Sum of atomic charges:   -0.0000000

LOEWDIN ATOMIC CHARGES
----------------------
   0 C :   -0.017457
   1 O :   -0.000050
   2 H :   -0.000014
   3 H :   -0.000766
   4 H :   -0.008669
   5 H :   -0.006877
   6 C :   -0.376617
   7 O :   -0.055962
   8 H :    0.160312
   9 H :    0.107308
  10 H :    0.109062
  11 H :    0.089731

  Mayer bond orders larger than 0.1
B(  6-C ,  7-O ) :   1.0183 B(  6-C ,  9-H ) :   0.9760 B(  6-C , 10-H ) :   0.9758
B(  6-C , 11-H ) :   0.9762 B(  7-O ,  8-H ) :   0.9069

Dispersion correction           -0.000239453
FINAL SINGLE POINT ENERGY      -115.730700272297

DIPOLE MOMENT
-------------
                                X             Y             Z
Electronic contribution:      0.52433       0.28073       1.81563
Nuclear contribution   :     -1.17045      -0.55852      -2.01788
                        -----------------------------------------
Total Dipole Moment    :     -0.64612      -0.27779      -0.20225
                        -----------------------------------------
Magnitude (a.u.)       :      0.73181
Magnitude (Debye)      :      1.86011

Rotational constants in cm-1:     4.544483     0.838167     0.810774
Rotational constants in MHz : 136240.182552 25127.614164 24306.390096

                             ****ORCA TERMINATED NORMALLY****
TOTAL RUN TIME: 0 days 0 hours 0 minutes 56 seconds 201 msec
