                         Program Version 4.1.2  - RELEASE  -
|  1> #Run DFT-D3 single point of the dimer
|  2> ! wB97X-D3 def2-TZVP TIGHTSCF CHELPG PMODEL PAL8
|  3>
|  4> %base "15-153_DFT_AB"
|  5>
|  6> %scf
|  7> MaxIter 1000
|  8> end
|  9>
| 10> * xyz 0 1
| 11>   C                      -7.384591            -5.803450            -3.268758
| 12>   O                      -6.320142            -6.327695            -2.550983
| 13>   H                      -5.901000            -5.572593            -2.211143
| 14>   H                      -7.027067            -4.995892            -3.920319
| 15>   H                      -7.912776            -6.587076            -3.837397
| 16>   H                      -8.019997            -5.265419            -2.574121
| 17>   C                      -5.752670            -2.614842            -0.937438
| 18>   O                      -5.811295            -3.348230            -2.117618
| 19>   H                      -6.084452            -2.675142            -2.728560
| 20>   H                      -6.751639            -2.518211            -0.460841
| 21>   H                      -5.101315            -3.075531            -0.228291
| 22>   H                      -5.384440            -1.549916            -1.038424
| 23> *
| 24>
| 25> #Run DFT-D3 single point of the molecule with dimer basis set
| 26> $new_job
| 27> %base "15-153_DFT_A"
| 28> ! wB97X-D3 def2-TZVP TIGHTSCF CHELPG PMODEL
| 29>
| 30> %scf
| 31> MaxIter 1000
| 32> end
| 33>
| 34> * xyz 0 1
| 35>   C                      -7.384591            -5.803450            -3.268758
| 36>   O                      -6.320142            -6.327695            -2.550983
| 37>   H                      -5.901000            -5.572593            -2.211143
| 38>   H                      -7.027067            -4.995892            -3.920319
| 39>   H                      -7.912776            -6.587076            -3.837397
| 40>   H                      -8.019997            -5.265419            -2.574121
| 41>   C                    : -5.752670            -2.614842            -0.937438
| 42>   O                    : -5.811295            -3.348230            -2.117618
| 43>   H                    : -6.084452            -2.675142            -2.728560
| 44>   H                    : -6.751639            -2.518211            -0.460841
| 45>   H                    : -5.101315            -3.075531            -0.228291
| 46>   H                    : -5.384440            -1.549916            -1.038424
| 47> *
| 48>
| 49> #Run DFT-D3 single point of the particle with dimer basis set
| 50> $new_job
| 51> %base "15-153_DFT_B"
| 52> ! wB97X-D3 def2-TZVP TIGHTSCF CHELPG PMODEL
| 53>
| 54> %scf
| 55> MaxIter 1000
| 56> end
| 57>
| 58> * xyz 0 1
| 59>   C                    : -7.384591            -5.803450            -3.268758
| 60>   O                    : -6.320142            -6.327695            -2.550983
| 61>   H                    : -5.901000            -5.572593            -2.211143
| 62>   H                    : -7.027067            -4.995892            -3.920319
| 63>   H                    : -7.912776            -6.587076            -3.837397
| 64>   H                    : -8.019997            -5.265419            -2.574121
| 65>   C                      -5.752670            -2.614842            -0.937438
| 66>   O                      -5.811295            -3.348230            -2.117618
| 67>   H                      -6.084452            -2.675142            -2.728560
| 68>   H                      -6.751639            -2.518211            -0.460841
| 69>   H                      -5.101315            -3.075531            -0.228291
| 70>   H                      -5.384440            -1.549916            -1.038424
| 71> *
| 72>
| 73>                          ****END OF INPUT****
 Total Charge           Charge          ....    0
 Multiplicity           Mult            ....    1
 Number of Electrons    NEL             ....   36
Dispersion correction           -0.001948318
FINAL SINGLE POINT ENERGY      -231.471317760261
Dispersion correction           -0.000195615
FINAL SINGLE POINT ENERGY      -115.731480310341

CARTESIAN COORDINATES (ANGSTROEM)
---------------------------------
  C     -7.384591   -5.803450   -3.268758
  O     -6.320142   -6.327695   -2.550983
  H     -5.901000   -5.572593   -2.211143
  H     -7.027067   -4.995892   -3.920319
  H     -7.912776   -6.587076   -3.837397
  H     -8.019997   -5.265419   -2.574121
  C     -5.752670   -2.614842   -0.937438
  O     -5.811295   -3.348230   -2.117618
  H     -6.084452   -2.675142   -2.728560
  H     -6.751639   -2.518211   -0.460841
  H     -5.101315   -3.075531   -0.228291
  H     -5.384440   -1.549916   -1.038424

 Multiplicity           Mult            ....    1
 Number of Electrons    NEL             ....   18
 Basis Dimension        Dim             ....  172

ORBITAL ENERGIES
----------------

  NO   OCC          E(Eh)            E(eV)
   0   2.0000     -19.236024      -523.4388
   1   2.0000     -10.314469      -280.6710
   2   2.0000      -1.153910       -31.3995
   3   2.0000      -0.792504       -21.5651
   4   2.0000      -0.618212       -16.8224
   5   2.0000      -0.542442       -14.7606
   6   2.0000      -0.530738       -14.4421
   7   2.0000      -0.442702       -12.0465
   8   2.0000      -0.374451       -10.1893
   9   0.0000       0.098022         2.6673
  10   0.0000       0.128522         3.4972
  11   0.0000       0.153812         4.1854
  12   0.0000       0.182837         4.9752
  13   0.0000       0.189568         5.1584

MULLIKEN ATOMIC CHARGES
-----------------------
   0 C :    0.016163
   1 O :   -0.000779
   2 H :   -0.009104
   3 H :   -0.007810
   4 H :   -0.000442
   5 H :   -0.008372
   6 C :   -0.180457
   7 O :   -0.442145
   8 H :    0.314360
   9 H :    0.097863
  10 H :    0.120954
  11 H :    0.099769
Sum of atomic charges:   -0.0000000

LOEWDIN ATOMIC CHARGES
----------------------
   0 C :   -0.013795
   1 O :   -0.002472
   2 H :   -0.018897
   3 H :   -0.004279
   4 H :   -0.000153
   5 H :   -0.003222
   6 C :   -0.412043
   7 O :   -0.014945
   8 H :    0.171612
   9 H :    0.095994
  10 H :    0.100158
  11 H :    0.102043

  Mayer bond orders larger than 0.1
B(  6-C ,  7-O ) :   1.0014 B(  6-C ,  9-H ) :   0.9730 B(  6-C , 10-H ) :   0.9780
B(  6-C , 11-H ) :   0.9721 B(  7-O ,  8-H ) :   0.9009

Dispersion correction           -0.000228140
FINAL SINGLE POINT ENERGY      -115.733045304038

DIPOLE MOMENT
-------------
                                X             Y             Z
Electronic contribution:      0.02222      -1.20231      -1.56926
Nuclear contribution   :     -0.14563       1.89382       1.62368
                        -----------------------------------------
Total Dipole Moment    :     -0.12341       0.69150       0.05442
                        -----------------------------------------
Magnitude (a.u.)       :      0.70454
Magnitude (Debye)      :      1.79079

Rotational constants in cm-1:     4.284278     0.853394     0.821218
Rotational constants in MHz : 128439.411327 25584.107820 24619.495656

                             ****ORCA TERMINATED NORMALLY****
TOTAL RUN TIME: 0 days 0 hours 1 minutes 7 seconds 585 msec
