                         Program Version 4.1.2  - RELEASE  -
|  1> #Run DFT-D3 single point of the dimer
|  2> ! wB97X-D3 def2-TZVP TIGHTSCF CHELPG PMODEL PAL8
|  3>
|  4> %base "17-72_DFT_AB"
|  5>
|  6> %scf
|  7> MaxIter 1000
|  8> end
|  9>
| 10> * xyz 0 1
| 11>   C                      3.428928             8.666497             5.285069
| 12>   O                      4.762131             8.230754             5.347500
| 13>   H                      4.851017             7.570642             4.577961
| 14>   H                      3.003292             8.738284             4.342669
| 15>   H                      2.793504             7.932422             5.811546
| 16>   H                      3.320919             9.639837             5.807513
| 17>   C                      -0.726115            9.795292             5.714194
| 18>   O                      -1.311532            8.737187             6.403669
| 19>   H                      -1.031756            7.864205             5.971281
| 20>   H                      0.333128             9.943039             6.016875
| 21>   H                      -0.649164            9.690465             4.597876
| 22>   H                      -1.278986            10.773929            5.824933
| 23> *
| 24>
| 25> #Run DFT-D3 single point of the molecule with dimer basis set
| 26> $new_job
| 27> %base "17-72_DFT_A"
| 28> ! wB97X-D3 def2-TZVP TIGHTSCF CHELPG PMODEL
| 29>
| 30> %scf
| 31> MaxIter 1000
| 32> end
| 33>
| 34> * xyz 0 1
| 35>   C                      3.428928             8.666497             5.285069
| 36>   O                      4.762131             8.230754             5.347500
| 37>   H                      4.851017             7.570642             4.577961
| 38>   H                      3.003292             8.738284             4.342669
| 39>   H                      2.793504             7.932422             5.811546
| 40>   H                      3.320919             9.639837             5.807513
| 41>   C                    : -0.726115            9.795292             5.714194
| 42>   O                    : -1.311532            8.737187             6.403669
| 43>   H                    : -1.031756            7.864205             5.971281
| 44>   H                    : 0.333128             9.943039             6.016875
| 45>   H                    : -0.649164            9.690465             4.597876
| 46>   H                    : -1.278986            10.773929            5.824933
| 47> *
| 48>
| 49> #Run DFT-D3 single point of the particle with dimer basis set
| 50> $new_job
| 51> %base "17-72_DFT_B"
| 52> ! wB97X-D3 def2-TZVP TIGHTSCF CHELPG PMODEL
| 53>
| 54> %scf
| 55> MaxIter 1000
| 56> end
| 57>
| 58> * xyz 0 1
| 59>   C                    : 3.428928             8.666497             5.285069
| 60>   O                    : 4.762131             8.230754             5.347500
| 61>   H                    : 4.851017             7.570642             4.577961
| 62>   H                    : 3.003292             8.738284             4.342669
| 63>   H                    : 2.793504             7.932422             5.811546
| 64>   H                    : 3.320919             9.639837             5.807513
| 65>   C                      -0.726115            9.795292             5.714194
| 66>   O                      -1.311532            8.737187             6.403669
| 67>   H                      -1.031756            7.864205             5.971281
| 68>   H                      0.333128             9.943039             6.016875
| 69>   H                      -0.649164            9.690465             4.597876
| 70>   H                      -1.278986            10.773929            5.824933
| 71> *
| 72>
| 73>                          ****END OF INPUT****
 Total Charge           Charge          ....    0
 Multiplicity           Mult            ....    1
 Number of Electrons    NEL             ....   36
Dispersion correction           -0.001236752
FINAL SINGLE POINT ENERGY      -231.459947521160
Dispersion correction           -0.000231716
FINAL SINGLE POINT ENERGY      -115.729337426905

CARTESIAN COORDINATES (ANGSTROEM)
---------------------------------
  C      3.428928    8.666497    5.285069
  O      4.762131    8.230754    5.347500
  H      4.851017    7.570642    4.577961
  H      3.003292    8.738284    4.342669
  H      2.793504    7.932422    5.811546
  H      3.320919    9.639837    5.807513
  C     -0.726115    9.795292    5.714194
  O     -1.311532    8.737187    6.403669
  H     -1.031756    7.864205    5.971281
  H      0.333128    9.943039    6.016875
  H     -0.649164    9.690465    4.597876
  H     -1.278986   10.773929    5.824933

 Multiplicity           Mult            ....    1
 Number of Electrons    NEL             ....   18
 Basis Dimension        Dim             ....  172

ORBITAL ENERGIES
----------------

  NO   OCC          E(Eh)            E(eV)
   0   2.0000     -19.239102      -523.5226
   1   2.0000     -10.319714      -280.8137
   2   2.0000      -1.135534       -30.8994
   3   2.0000      -0.786026       -21.3889
   4   2.0000      -0.612329       -16.6623
   5   2.0000      -0.538532       -14.6542
   6   2.0000      -0.523111       -14.2346
   7   2.0000      -0.427537       -11.6339
   8   2.0000      -0.371403       -10.1064
   9   0.0000       0.076534         2.0826
  10   0.0000       0.111183         3.0254
  11   0.0000       0.141650         3.8545
  12   0.0000       0.168568         4.5870
  13   0.0000       0.187994         5.1156

MULLIKEN ATOMIC CHARGES
-----------------------
   0 C :   -0.000261
   1 O :    0.000028
   2 H :    0.000006
   3 H :   -0.000325
   4 H :    0.000551
   5 H :   -0.000440
   6 C :   -0.175261
   7 O :   -0.469486
   8 H :    0.323809
   9 H :    0.099847
  10 H :    0.100939
  11 H :    0.120592
Sum of atomic charges:   -0.0000000

LOEWDIN ATOMIC CHARGES
----------------------
   0 C :   -0.002085
   1 O :   -0.000008
   2 H :   -0.000004
   3 H :   -0.000231
   4 H :   -0.000265
   5 H :   -0.000989
   6 C :   -0.425187
   7 O :   -0.081101
   8 H :    0.203861
   9 H :    0.095309
  10 H :    0.097186
  11 H :    0.113515

  Mayer bond orders larger than 0.1
B(  6-C ,  7-O ) :   1.0082 B(  6-C ,  9-H ) :   0.9746 B(  6-C , 10-H ) :   0.9738
B(  6-C , 11-H ) :   0.9682 B(  7-O ,  8-H ) :   0.8852

Dispersion correction           -0.000266226
FINAL SINGLE POINT ENERGY      -115.730163243431

DIPOLE MOMENT
-------------
                                X             Y             Z
Electronic contribution:     -0.93939      -1.38549       1.10892
Nuclear contribution   :      1.32021       1.22932      -1.65223
                        -----------------------------------------
Total Dipole Moment    :      0.38082      -0.15617      -0.54331
                        -----------------------------------------
Magnitude (a.u.)       :      0.68161
Magnitude (Debye)      :      1.73253

Rotational constants in cm-1:     4.203474     0.830822     0.797825
Rotational constants in MHz : 126016.971162 24907.403279 23918.189447

                             ****ORCA TERMINATED NORMALLY****
TOTAL RUN TIME: 0 days 0 hours 1 minutes 11 seconds 400 msec
