                         Program Version 4.1.2  - RELEASE  -
|  1> #Run DFT-D3 single point of the dimer
|  2> ! wB97X-D3 def2-TZVP TIGHTSCF CHELPG PMODEL PAL8
|  3>
|  4> %base "9-168_DFT_AB"
|  5>
|  6> %scf
|  7> MaxIter 1000
|  8> end
|  9>
| 10> * xyz 0 1
| 11>   C                      10.677897            9.797862             9.342394
| 12>   O                      9.896940             9.462285             10.426199
| 13>   H                      9.168333             8.870181             10.291946
| 14>   H                      10.150146            10.491683            8.673961
| 15>   H                      11.547956            10.325346            9.611943
| 16>   H                      11.000104            8.933296             8.888553
| 17>   C                      7.552119             9.311828             7.302262
| 18>   O                      8.424865             8.236873             7.635050
| 19>   H                      8.038297             7.903594             8.514994
| 20>   H                      6.469145             9.194875             7.344775
| 21>   H                      7.737204             10.092626            8.002545
| 22>   H                      7.867313             9.844927             6.504650
| 23> *
| 24>
| 25> #Run DFT-D3 single point of the molecule with dimer basis set
| 26> $new_job
| 27> %base "9-168_DFT_A"
| 28> ! wB97X-D3 def2-TZVP TIGHTSCF CHELPG PMODEL
| 29>
| 30> %scf
| 31> MaxIter 1000
| 32> end
| 33>
| 34> * xyz 0 1
| 35>   C                      10.677897            9.797862             9.342394
| 36>   O                      9.896940             9.462285             10.426199
| 37>   H                      9.168333             8.870181             10.291946
| 38>   H                      10.150146            10.491683            8.673961
| 39>   H                      11.547956            10.325346            9.611943
| 40>   H                      11.000104            8.933296             8.888553
| 41>   C                    : 7.552119             9.311828             7.302262
| 42>   O                    : 8.424865             8.236873             7.635050
| 43>   H                    : 8.038297             7.903594             8.514994
| 44>   H                    : 6.469145             9.194875             7.344775
| 45>   H                    : 7.737204             10.092626            8.002545
| 46>   H                    : 7.867313             9.844927             6.504650
| 47> *
| 48>
| 49> #Run DFT-D3 single point of the particle with dimer basis set
| 50> $new_job
| 51> %base "9-168_DFT_B"
| 52> ! wB97X-D3 def2-TZVP TIGHTSCF CHELPG PMODEL
| 53>
| 54> %scf
| 55> MaxIter 1000
| 56> end
| 57>
| 58> * xyz 0 1
| 59>   C                    : 10.677897            9.797862             9.342394
| 60>   O                    : 9.896940             9.462285             10.426199
| 61>   H                    : 9.168333             8.870181             10.291946
| 62>   H                    : 10.150146            10.491683            8.673961
| 63>   H                    : 11.547956            10.325346            9.611943
| 64>   H                    : 11.000104            8.933296             8.888553
| 65>   C                      7.552119             9.311828             7.302262
| 66>   O                      8.424865             8.236873             7.635050
| 67>   H                      8.038297             7.903594             8.514994
| 68>   H                      6.469145             9.194875             7.344775
| 69>   H                      7.737204             10.092626            8.002545
| 70>   H                      7.867313             9.844927             6.504650
| 71> *
| 72>
| 73>                          ****END OF INPUT****
 Total Charge           Charge          ....    0
 Multiplicity           Mult            ....    1
 Number of Electrons    NEL             ....   36
Dispersion correction           -0.002432379
FINAL SINGLE POINT ENERGY      -231.446298374804
Dispersion correction           -0.000231066
FINAL SINGLE POINT ENERGY      -115.728139874196

CARTESIAN COORDINATES (ANGSTROEM)
---------------------------------
  C     10.677897    9.797862    9.342394
  O      9.896940    9.462285   10.426199
  H      9.168333    8.870181   10.291946
  H     10.150146   10.491683    8.673961
  H     11.547956   10.325346    9.611943
  H     11.000104    8.933296    8.888553
  C      7.552119    9.311828    7.302262
  O      8.424865    8.236873    7.635050
  H      8.038297    7.903594    8.514994
  H      6.469145    9.194875    7.344775
  H      7.737204   10.092626    8.002545
  H      7.867313    9.844927    6.504650

 Multiplicity           Mult            ....    1
 Number of Electrons    NEL             ....   18
 Basis Dimension        Dim             ....  172

ORBITAL ENERGIES
----------------

  NO   OCC          E(Eh)            E(eV)
   0   2.0000     -19.240883      -523.5710
   1   2.0000     -10.300413      -280.2885
   2   2.0000      -1.128170       -30.6991
   3   2.0000      -0.806487       -21.9456
   4   2.0000      -0.606410       -16.5013
   5   2.0000      -0.544183       -14.8080
   6   2.0000      -0.525920       -14.3110
   7   2.0000      -0.444989       -12.1088
   8   2.0000      -0.370962       -10.0944
   9   0.0000       0.085165         2.3175
  10   0.0000       0.129320         3.5190
  11   0.0000       0.147198         4.0055
  12   0.0000       0.175586         4.7779
  13   0.0000       0.192987         5.2515

MULLIKEN ATOMIC CHARGES
-----------------------
   0 C :    0.004783
   1 O :   -0.000584
   2 H :   -0.007927
   3 H :    0.000743
   4 H :   -0.000282
   5 H :   -0.004612
   6 C :   -0.196874
   7 O :   -0.464654
   8 H :    0.320208
   9 H :    0.118369
  10 H :    0.107410
  11 H :    0.123420
Sum of atomic charges:    0.0000000

LOEWDIN ATOMIC CHARGES
----------------------
   0 C :   -0.013476
   1 O :   -0.001086
   2 H :   -0.005971
   3 H :   -0.002645
   4 H :   -0.000159
   5 H :   -0.003946
   6 C :   -0.384470
   7 O :   -0.082008
   8 H :    0.206600
   9 H :    0.098983
  10 H :    0.096582
  11 H :    0.091596

  Mayer bond orders larger than 0.1
B(  6-C ,  7-O ) :   1.0036 B(  6-C ,  9-H ) :   0.9694 B(  6-C , 10-H ) :   0.9827
B(  6-C , 11-H ) :   0.9778 B(  7-O ,  8-H ) :   0.8937

Dispersion correction           -0.000236074
FINAL SINGLE POINT ENERGY      -115.718032379018

DIPOLE MOMENT
-------------
                                X             Y             Z
Electronic contribution:      1.15030      -1.56300       0.07008
Nuclear contribution   :     -1.70798       1.83308       0.32799
                        -----------------------------------------
Total Dipole Moment    :     -0.55768       0.27008       0.39807
                        -----------------------------------------
Magnitude (a.u.)       :      0.73648
Magnitude (Debye)      :      1.87198

Rotational constants in cm-1:     4.549787     0.825821     0.787841
Rotational constants in MHz : 136399.189376 24757.477662 23618.870066

                             ****ORCA TERMINATED NORMALLY****
TOTAL RUN TIME: 0 days 0 hours 0 minutes 48 seconds 827 msec
