                         Program Version 4.1.2  - RELEASE  -
|  1> #Run DFT-D3 single point of the dimer
|  2> ! wB97X-D3 def2-TZVP TIGHTSCF CHELPG PMODEL PAL8
|  3>
|  4> %base "4-141_DFT_AB"
|  5>
|  6> %scf
|  7> MaxIter 1000
|  8> end
|  9>
| 10> * xyz 0 1
| 11>   C                      5.575884             3.455816             2.278661
| 12>   O                      5.570222             4.240747             1.097227
| 13>   H                      5.316256             5.104723             1.255462
| 14>   H                      6.440792             2.781911             2.223781
| 15>   H                      5.662425             4.071573             3.151950
| 16>   H                      4.681182             2.723832             2.396170
| 17>   C                      7.497052             2.270548             -2.229564
| 18>   O                      7.274644             2.219434             -0.824995
| 19>   H                      7.353373             3.087960             -0.498924
| 20>   H                      6.908298             1.511459             -2.771878
| 21>   H                      7.202090             3.245681             -2.504666
| 22>   H                      8.554469             2.117082             -2.447961
| 23> *
| 24>
| 25> #Run DFT-D3 single point of the molecule with dimer basis set
| 26> $new_job
| 27> %base "4-141_DFT_A"
| 28> ! wB97X-D3 def2-TZVP TIGHTSCF CHELPG PMODEL
| 29>
| 30> %scf
| 31> MaxIter 1000
| 32> end
| 33>
| 34> * xyz 0 1
| 35>   C                      5.575884             3.455816             2.278661
| 36>   O                      5.570222             4.240747             1.097227
| 37>   H                      5.316256             5.104723             1.255462
| 38>   H                      6.440792             2.781911             2.223781
| 39>   H                      5.662425             4.071573             3.151950
| 40>   H                      4.681182             2.723832             2.396170
| 41>   C                    : 7.497052             2.270548             -2.229564
| 42>   O                    : 7.274644             2.219434             -0.824995
| 43>   H                    : 7.353373             3.087960             -0.498924
| 44>   H                    : 6.908298             1.511459             -2.771878
| 45>   H                    : 7.202090             3.245681             -2.504666
| 46>   H                    : 8.554469             2.117082             -2.447961
| 47> *
| 48>
| 49> #Run DFT-D3 single point of the particle with dimer basis set
| 50> $new_job
| 51> %base "4-141_DFT_B"
| 52> ! wB97X-D3 def2-TZVP TIGHTSCF CHELPG PMODEL
| 53>
| 54> %scf
| 55> MaxIter 1000
| 56> end
| 57>
| 58> * xyz 0 1
| 59>   C                    : 5.575884             3.455816             2.278661
| 60>   O                    : 5.570222             4.240747             1.097227
| 61>   H                    : 5.316256             5.104723             1.255462
| 62>   H                    : 6.440792             2.781911             2.223781
| 63>   H                    : 5.662425             4.071573             3.151950
| 64>   H                    : 4.681182             2.723832             2.396170
| 65>   C                      7.497052             2.270548             -2.229564
| 66>   O                      7.274644             2.219434             -0.824995
| 67>   H                      7.353373             3.087960             -0.498924
| 68>   H                      6.908298             1.511459             -2.771878
| 69>   H                      7.202090             3.245681             -2.504666
| 70>   H                      8.554469             2.117082             -2.447961
| 71> *
| 72>
| 73>                          ****END OF INPUT****
 Total Charge           Charge          ....    0
 Multiplicity           Mult            ....    1
 Number of Electrons    NEL             ....   36
Dispersion correction           -0.001481651
FINAL SINGLE POINT ENERGY      -231.466621462869
Dispersion correction           -0.000266053
FINAL SINGLE POINT ENERGY      -115.730602489349

CARTESIAN COORDINATES (ANGSTROEM)
---------------------------------
  C      5.575884    3.455816    2.278661
  O      5.570222    4.240747    1.097227
  H      5.316256    5.104723    1.255462
  H      6.440792    2.781911    2.223781
  H      5.662425    4.071573    3.151950
  H      4.681182    2.723832    2.396170
  C      7.497052    2.270548   -2.229564
  O      7.274644    2.219434   -0.824995
  H      7.353373    3.087960   -0.498924
  H      6.908298    1.511459   -2.771878
  H      7.202090    3.245681   -2.504666
  H      8.554469    2.117082   -2.447961

 Multiplicity           Mult            ....    1
 Number of Electrons    NEL             ....   18
 Basis Dimension        Dim             ....  172

ORBITAL ENERGIES
----------------

  NO   OCC          E(Eh)            E(eV)
   0   2.0000     -19.223930      -523.1097
   1   2.0000     -10.311395      -280.5873
   2   2.0000      -1.139203       -30.9993
   3   2.0000      -0.798906       -21.7393
   4   2.0000      -0.612550       -16.6683
   5   2.0000      -0.545163       -14.8346
   6   2.0000      -0.533466       -14.5163
   7   2.0000      -0.432815       -11.7775
   8   2.0000      -0.373300       -10.1580
   9   0.0000       0.083026         2.2593
  10   0.0000       0.125315         3.4100
  11   0.0000       0.158180         4.3043
  12   0.0000       0.167145         4.5483
  13   0.0000       0.203400         5.5348

MULLIKEN ATOMIC CHARGES
-----------------------
   0 C :   -0.002545
   1 O :   -0.001093
   2 H :   -0.000152
   3 H :   -0.001430
   4 H :   -0.000032
   5 H :    0.000188
   6 C :   -0.150625
   7 O :   -0.470860
   8 H :    0.310617
   9 H :    0.115737
  10 H :    0.098715
  11 H :    0.101480
Sum of atomic charges:    0.0000000

LOEWDIN ATOMIC CHARGES
----------------------
   0 C :   -0.003044
   1 O :   -0.003755
   2 H :   -0.000240
   3 H :   -0.001300
   4 H :   -0.000050
   5 H :   -0.000069
   6 C :   -0.363814
   7 O :   -0.069676
   8 H :    0.148830
   9 H :    0.108062
  10 H :    0.089323
  11 H :    0.095735

  Mayer bond orders larger than 0.1
B(  6-C ,  7-O ) :   0.9996 B(  6-C ,  9-H ) :   0.9732 B(  6-C , 10-H ) :   0.9950
B(  6-C , 11-H ) :   0.9746 B(  7-O ,  8-H ) :   0.9058

Dispersion correction           -0.000223534
FINAL SINGLE POINT ENERGY      -115.732645426662

DIPOLE MOMENT
-------------
                                X             Y             Z
Electronic contribution:     -0.30660      -0.22381       1.66962
Nuclear contribution   :      0.43970       0.81669      -2.05193
                        -----------------------------------------
Total Dipole Moment    :      0.13311       0.59288      -0.38231
                        -----------------------------------------
Magnitude (a.u.)       :      0.71790
Magnitude (Debye)      :      1.82476

Rotational constants in cm-1:     4.352283     0.833762     0.805391
Rotational constants in MHz : 130478.169208 24995.541176 24145.028870

                             ****ORCA TERMINATED NORMALLY****
TOTAL RUN TIME: 0 days 0 hours 1 minutes 35 seconds 90 msec
