                         Program Version 4.1.2  - RELEASE  -
|  1> #Run DFT-D3 single point of the dimer
|  2> ! wB97X-D3 def2-TZVP TIGHTSCF CHELPG PMODEL PAL8
|  3>
|  4> %base "12-149_DFT_AB"
|  5>
|  6> %scf
|  7> MaxIter 1000
|  8> end
|  9>
| 10> * xyz 0 1
| 11>   C                      -7.385395            -10.068063           4.591680
| 12>   O                      -7.192606            -9.312216            3.396525
| 13>   H                      -7.344888            -8.408977            3.699416
| 14>   H                      -8.207792            -10.779488           4.517849
| 15>   H                      -6.469226            -10.521913           4.846089
| 16>   H                      -7.622171            -9.491935            5.517564
| 17>   C                      -6.097727            -5.340235            3.404560
| 18>   O                      -6.498002            -6.530726            3.998378
| 19>   H                      -6.377586            -6.543467            4.952224
| 20>   H                      -5.046251            -5.086913            3.652144
| 21>   H                      -6.052630            -5.371745            2.312971
| 22>   H                      -6.693114            -4.525740            3.737371
| 23> *
| 24>
| 25> #Run DFT-D3 single point of the molecule with dimer basis set
| 26> $new_job
| 27> %base "12-149_DFT_A"
| 28> ! wB97X-D3 def2-TZVP TIGHTSCF CHELPG PMODEL
| 29>
| 30> %scf
| 31> MaxIter 1000
| 32> end
| 33>
| 34> * xyz 0 1
| 35>   C                      -7.385395            -10.068063           4.591680
| 36>   O                      -7.192606            -9.312216            3.396525
| 37>   H                      -7.344888            -8.408977            3.699416
| 38>   H                      -8.207792            -10.779488           4.517849
| 39>   H                      -6.469226            -10.521913           4.846089
| 40>   H                      -7.622171            -9.491935            5.517564
| 41>   C                    : -6.097727            -5.340235            3.404560
| 42>   O                    : -6.498002            -6.530726            3.998378
| 43>   H                    : -6.377586            -6.543467            4.952224
| 44>   H                    : -5.046251            -5.086913            3.652144
| 45>   H                    : -6.052630            -5.371745            2.312971
| 46>   H                    : -6.693114            -4.525740            3.737371
| 47> *
| 48>
| 49> #Run DFT-D3 single point of the particle with dimer basis set
| 50> $new_job
| 51> %base "12-149_DFT_B"
| 52> ! wB97X-D3 def2-TZVP TIGHTSCF CHELPG PMODEL
| 53>
| 54> %scf
| 55> MaxIter 1000
| 56> end
| 57>
| 58> * xyz 0 1
| 59>   C                    : -7.385395            -10.068063           4.591680
| 60>   O                    : -7.192606            -9.312216            3.396525
| 61>   H                    : -7.344888            -8.408977            3.699416
| 62>   H                    : -8.207792            -10.779488           4.517849
| 63>   H                    : -6.469226            -10.521913           4.846089
| 64>   H                    : -7.622171            -9.491935            5.517564
| 65>   C                      -6.097727            -5.340235            3.404560
| 66>   O                      -6.498002            -6.530726            3.998378
| 67>   H                      -6.377586            -6.543467            4.952224
| 68>   H                      -5.046251            -5.086913            3.652144
| 69>   H                      -6.052630            -5.371745            2.312971
| 70>   H                      -6.693114            -4.525740            3.737371
| 71> *
| 72>
| 73>                          ****END OF INPUT****
 Total Charge           Charge          ....    0
 Multiplicity           Mult            ....    1
 Number of Electrons    NEL             ....   36
Dispersion correction           -0.001510768
FINAL SINGLE POINT ENERGY      -231.469332225585
Dispersion correction           -0.000248923
FINAL SINGLE POINT ENERGY      -115.731111641777

CARTESIAN COORDINATES (ANGSTROEM)
---------------------------------
  C     -7.385395  -10.068063    4.591680
  O     -7.192606   -9.312216    3.396525
  H     -7.344888   -8.408977    3.699416
  H     -8.207792  -10.779488    4.517849
  H     -6.469226  -10.521913    4.846089
  H     -7.622171   -9.491935    5.517564
  C     -6.097727   -5.340235    3.404560
  O     -6.498002   -6.530726    3.998378
  H     -6.377586   -6.543467    4.952224
  H     -5.046251   -5.086913    3.652144
  H     -6.052630   -5.371745    2.312971
  H     -6.693114   -4.525740    3.737371

 Multiplicity           Mult            ....    1
 Number of Electrons    NEL             ....   18
 Basis Dimension        Dim             ....  172

ORBITAL ENERGIES
----------------

  NO   OCC          E(Eh)            E(eV)
   0   2.0000     -19.229350      -523.2572
   1   2.0000     -10.309945      -280.5479
   2   2.0000      -1.140559       -31.0362
   3   2.0000      -0.799555       -21.7570
   4   2.0000      -0.618180       -16.8215
   5   2.0000      -0.549918       -14.9640
   6   2.0000      -0.529070       -14.3967
   7   2.0000      -0.423782       -11.5317
   8   2.0000      -0.372054       -10.1241
   9   0.0000       0.093981         2.5573
  10   0.0000       0.125592         3.4175
  11   0.0000       0.153613         4.1800
  12   0.0000       0.188223         5.1218
  13   0.0000       0.205459         5.5908

MULLIKEN ATOMIC CHARGES
-----------------------
   0 C :   -0.000725
   1 O :    0.001120
   2 H :   -0.011270
   3 H :   -0.000153
   4 H :    0.000214
   5 H :   -0.000594
   6 C :   -0.148184
   7 O :   -0.474838
   8 H :    0.321167
   9 H :    0.088119
  10 H :    0.121834
  11 H :    0.103310
Sum of atomic charges:   -0.0000000

LOEWDIN ATOMIC CHARGES
----------------------
   0 C :   -0.001952
   1 O :   -0.005466
   2 H :   -0.031584
   3 H :   -0.000042
   4 H :   -0.000045
   5 H :   -0.000250
   6 C :   -0.398566
   7 O :   -0.029853
   8 H :    0.173419
   9 H :    0.096064
  10 H :    0.109987
  11 H :    0.088288

  Mayer bond orders larger than 0.1
B(  6-C ,  7-O ) :   0.9952 B(  6-C ,  9-H ) :   0.9769 B(  6-C , 10-H ) :   0.9724
B(  6-C , 11-H ) :   0.9782 B(  7-O ,  8-H ) :   0.8883

Dispersion correction           -0.000241186
FINAL SINGLE POINT ENERGY      -115.733501903940

DIPOLE MOMENT
-------------
                                X             Y             Z
Electronic contribution:     -0.67960      -1.60847       0.63873
Nuclear contribution   :      0.92847       2.08508      -0.25874
                        -----------------------------------------
Total Dipole Moment    :      0.24887       0.47661       0.38000
                        -----------------------------------------
Magnitude (a.u.)       :      0.65840
Magnitude (Debye)      :      1.67352

Rotational constants in cm-1:     4.492057     0.842026     0.814921
Rotational constants in MHz : 134668.493282 25243.293381 24430.720027

                             ****ORCA TERMINATED NORMALLY****
TOTAL RUN TIME: 0 days 0 hours 1 minutes 9 seconds 855 msec
