                         Program Version 4.1.2  - RELEASE  -
|  1> #Run DFT-D3 single point of the dimer
|  2> ! wB97X-D3 def2-TZVP TIGHTSCF CHELPG PMODEL PAL8
|  3>
|  4> %base "11-169_DFT_AB"
|  5>
|  6> %scf
|  7> MaxIter 1000
|  8> end
|  9>
| 10> * xyz 0 1
| 11>   C                      9.424755             0.654069             9.694235
| 12>   O                      8.271776             0.103474             10.244217
| 13>   H                      8.504588             -0.187848            11.115742
| 14>   H                      9.540438             1.695390             9.804504
| 15>   H                      10.326911            0.252118             10.081967
| 16>   H                      9.487880             0.460406             8.646347
| 17>   C                      5.163529             0.054819             7.831404
| 18>   O                      5.767077             -0.570111            9.004683
| 19>   H                      6.618594             -0.206122            9.277932
| 20>   H                      5.208315             1.153949             7.942213
| 21>   H                      5.753755             -0.101697            6.837830
| 22>   H                      4.126756             -0.254294            7.606772
| 23> *
| 24>
| 25> #Run DFT-D3 single point of the molecule with dimer basis set
| 26> $new_job
| 27> %base "11-169_DFT_A"
| 28> ! wB97X-D3 def2-TZVP TIGHTSCF CHELPG PMODEL
| 29>
| 30> %scf
| 31> MaxIter 1000
| 32> end
| 33>
| 34> * xyz 0 1
| 35>   C                      9.424755             0.654069             9.694235
| 36>   O                      8.271776             0.103474             10.244217
| 37>   H                      8.504588             -0.187848            11.115742
| 38>   H                      9.540438             1.695390             9.804504
| 39>   H                      10.326911            0.252118             10.081967
| 40>   H                      9.487880             0.460406             8.646347
| 41>   C                    : 5.163529             0.054819             7.831404
| 42>   O                    : 5.767077             -0.570111            9.004683
| 43>   H                    : 6.618594             -0.206122            9.277932
| 44>   H                    : 5.208315             1.153949             7.942213
| 45>   H                    : 5.753755             -0.101697            6.837830
| 46>   H                    : 4.126756             -0.254294            7.606772
| 47> *
| 48>
| 49> #Run DFT-D3 single point of the particle with dimer basis set
| 50> $new_job
| 51> %base "11-169_DFT_B"
| 52> ! wB97X-D3 def2-TZVP TIGHTSCF CHELPG PMODEL
| 53>
| 54> %scf
| 55> MaxIter 1000
| 56> end
| 57>
| 58> * xyz 0 1
| 59>   C                    : 9.424755             0.654069             9.694235
| 60>   O                    : 8.271776             0.103474             10.244217
| 61>   H                    : 8.504588             -0.187848            11.115742
| 62>   H                    : 9.540438             1.695390             9.804504
| 63>   H                    : 10.326911            0.252118             10.081967
| 64>   H                    : 9.487880             0.460406             8.646347
| 65>   C                      5.163529             0.054819             7.831404
| 66>   O                      5.767077             -0.570111            9.004683
| 67>   H                      6.618594             -0.206122            9.277932
| 68>   H                      5.208315             1.153949             7.942213
| 69>   H                      5.753755             -0.101697            6.837830
| 70>   H                      4.126756             -0.254294            7.606772
| 71> *
| 72>
| 73>                          ****END OF INPUT****
 Total Charge           Charge          ....    0
 Multiplicity           Mult            ....    1
 Number of Electrons    NEL             ....   36
Dispersion correction           -0.001526489
FINAL SINGLE POINT ENERGY      -231.467228648215
Dispersion correction           -0.000230832
FINAL SINGLE POINT ENERGY      -115.732322488423

CARTESIAN COORDINATES (ANGSTROEM)
---------------------------------
  C      9.424755    0.654069    9.694235
  O      8.271776    0.103474   10.244217
  H      8.504588   -0.187848   11.115742
  H      9.540438    1.695390    9.804504
  H     10.326911    0.252118   10.081967
  H      9.487880    0.460406    8.646347
  C      5.163529    0.054819    7.831404
  O      5.767077   -0.570111    9.004683
  H      6.618594   -0.206122    9.277932
  H      5.208315    1.153949    7.942213
  H      5.753755   -0.101697    6.837830
  H      4.126756   -0.254294    7.606772

 Multiplicity           Mult            ....    1
 Number of Electrons    NEL             ....   18
 Basis Dimension        Dim             ....  172

ORBITAL ENERGIES
----------------

  NO   OCC          E(Eh)            E(eV)
   0   2.0000     -19.231681      -523.3206
   1   2.0000     -10.329973      -281.0928
   2   2.0000      -1.118986       -30.4491
   3   2.0000      -0.794864       -21.6294
   4   2.0000      -0.605905       -16.4875
   5   2.0000      -0.532223       -14.4825
   6   2.0000      -0.517422       -14.0798
   7   2.0000      -0.428902       -11.6710
   8   2.0000      -0.371658       -10.1133
   9   0.0000       0.069439         1.8895
  10   0.0000       0.129415         3.5216
  11   0.0000       0.138950         3.7810
  12   0.0000       0.169143         4.6026
  13   0.0000       0.187341         5.0978

MULLIKEN ATOMIC CHARGES
-----------------------
   0 C :   -0.001488
   1 O :   -0.000886
   2 H :   -0.000099
   3 H :    0.000100
   4 H :   -0.000085
   5 H :   -0.000228
   6 C :   -0.173257
   7 O :   -0.489850
   8 H :    0.318324
   9 H :    0.114006
  10 H :    0.099437
  11 H :    0.134025
Sum of atomic charges:    0.0000000

LOEWDIN ATOMIC CHARGES
----------------------
   0 C :   -0.003375
   1 O :   -0.018562
   2 H :   -0.000907
   3 H :   -0.000060
   4 H :   -0.000083
   5 H :   -0.000419
   6 C :   -0.364206
   7 O :   -0.104339
   8 H :    0.178311
   9 H :    0.097677
  10 H :    0.104815
  11 H :    0.111147

  Mayer bond orders larger than 0.1
B(  6-C ,  7-O ) :   0.9853 B(  6-C ,  9-H ) :   0.9782 B(  6-C , 10-H ) :   0.9674
B(  6-C , 11-H ) :   0.9675 B(  7-O ,  8-H ) :   0.8959

Dispersion correction           -0.000304217
FINAL SINGLE POINT ENERGY      -115.727156968314

DIPOLE MOMENT
-------------
                                X             Y             Z
Electronic contribution:      0.54033      -0.95075       1.59515
Nuclear contribution   :     -0.26310       1.47172      -1.91180
                        -----------------------------------------
Total Dipole Moment    :      0.27724       0.52097      -0.31665
                        -----------------------------------------
Magnitude (a.u.)       :      0.66973
Magnitude (Debye)      :      1.70232

Rotational constants in cm-1:     4.300101     0.766143     0.738844
Rotational constants in MHz : 128913.771425 22968.392786 22150.000601

                             ****ORCA TERMINATED NORMALLY****
TOTAL RUN TIME: 0 days 0 hours 1 minutes 12 seconds 934 msec
