                         Program Version 4.1.2  - RELEASE  -
|  1> #Run DFT-D3 single point of the dimer
|  2> ! wB97X-D3 def2-TZVP TIGHTSCF CHELPG PMODEL PAL8
|  3>
|  4> %base "22-97_DFT_AB"
|  5>
|  6> %scf
|  7> MaxIter 1000
|  8> end
|  9>
| 10> * xyz 0 1
| 11>   C                      8.152796             8.556054             -5.321419
| 12>   O                      6.909219             9.044673             -4.812207
| 13>   H                      6.285718             8.702034             -5.470259
| 14>   H                      8.064256             8.349003             -6.365875
| 15>   H                      9.010342             9.257000             -5.240811
| 16>   H                      8.377186             7.606242             -4.788367
| 17>   C                      6.482601             7.842035             -1.496625
| 18>   O                      5.451297             7.279990             -2.213697
| 19>   H                      5.302266             7.795353             -3.038521
| 20>   H                      7.370266             7.345764             -1.568673
| 21>   H                      6.736706             8.879642             -1.829562
| 22>   H                      6.207652             7.865627             -0.439105
| 23> *
| 24>
| 25> #Run DFT-D3 single point of the molecule with dimer basis set
| 26> $new_job
| 27> %base "22-97_DFT_A"
| 28> ! wB97X-D3 def2-TZVP TIGHTSCF CHELPG PMODEL
| 29>
| 30> %scf
| 31> MaxIter 1000
| 32> end
| 33>
| 34> * xyz 0 1
| 35>   C                      8.152796             8.556054             -5.321419
| 36>   O                      6.909219             9.044673             -4.812207
| 37>   H                      6.285718             8.702034             -5.470259
| 38>   H                      8.064256             8.349003             -6.365875
| 39>   H                      9.010342             9.257000             -5.240811
| 40>   H                      8.377186             7.606242             -4.788367
| 41>   C                    : 6.482601             7.842035             -1.496625
| 42>   O                    : 5.451297             7.279990             -2.213697
| 43>   H                    : 5.302266             7.795353             -3.038521
| 44>   H                    : 7.370266             7.345764             -1.568673
| 45>   H                    : 6.736706             8.879642             -1.829562
| 46>   H                    : 6.207652             7.865627             -0.439105
| 47> *
| 48>
| 49> #Run DFT-D3 single point of the particle with dimer basis set
| 50> $new_job
| 51> %base "22-97_DFT_B"
| 52> ! wB97X-D3 def2-TZVP TIGHTSCF CHELPG PMODEL
| 53>
| 54> %scf
| 55> MaxIter 1000
| 56> end
| 57>
| 58> * xyz 0 1
| 59>   C                    : 8.152796             8.556054             -5.321419
| 60>   O                    : 6.909219             9.044673             -4.812207
| 61>   H                    : 6.285718             8.702034             -5.470259
| 62>   H                    : 8.064256             8.349003             -6.365875
| 63>   H                    : 9.010342             9.257000             -5.240811
| 64>   H                    : 8.377186             7.606242             -4.788367
| 65>   C                      6.482601             7.842035             -1.496625
| 66>   O                      5.451297             7.279990             -2.213697
| 67>   H                      5.302266             7.795353             -3.038521
| 68>   H                      7.370266             7.345764             -1.568673
| 69>   H                      6.736706             8.879642             -1.829562
| 70>   H                      6.207652             7.865627             -0.439105
| 71> *
| 72>
| 73>                          ****END OF INPUT****
 Total Charge           Charge          ....    0
 Multiplicity           Mult            ....    1
 Number of Electrons    NEL             ....   36
Dispersion correction           -0.001856092
FINAL SINGLE POINT ENERGY      -231.466242717842
Dispersion correction           -0.000234502
FINAL SINGLE POINT ENERGY      -115.732201261219

CARTESIAN COORDINATES (ANGSTROEM)
---------------------------------
  C      8.152796    8.556054   -5.321419
  O      6.909219    9.044673   -4.812207
  H      6.285718    8.702034   -5.470259
  H      8.064256    8.349003   -6.365875
  H      9.010342    9.257000   -5.240811
  H      8.377186    7.606242   -4.788367
  C      6.482601    7.842035   -1.496625
  O      5.451297    7.279990   -2.213697
  H      5.302266    7.795353   -3.038521
  H      7.370266    7.345764   -1.568673
  H      6.736706    8.879642   -1.829562
  H      6.207652    7.865627   -0.439105

 Multiplicity           Mult            ....    1
 Number of Electrons    NEL             ....   18
 Basis Dimension        Dim             ....  172

ORBITAL ENERGIES
----------------

  NO   OCC          E(Eh)            E(eV)
   0   2.0000     -19.231492      -523.3155
   1   2.0000     -10.303354      -280.3685
   2   2.0000      -1.142869       -31.0991
   3   2.0000      -0.797947       -21.7132
   4   2.0000      -0.618640       -16.8341
   5   2.0000      -0.547507       -14.8984
   6   2.0000      -0.532526       -14.4908
   7   2.0000      -0.427802       -11.6411
   8   2.0000      -0.371819       -10.1177
   9   0.0000       0.070312         1.9133
  10   0.0000       0.122690         3.3386
  11   0.0000       0.146483         3.9860
  12   0.0000       0.177583         4.8323
  13   0.0000       0.187935         5.1140

MULLIKEN ATOMIC CHARGES
-----------------------
   0 C :    0.000024
   1 O :   -0.001350
   2 H :   -0.000461
   3 H :    0.000059
   4 H :   -0.000056
   5 H :   -0.000116
   6 C :   -0.159719
   7 O :   -0.474420
   8 H :    0.322051
   9 H :    0.109426
  10 H :    0.090884
  11 H :    0.113677
Sum of atomic charges:   -0.0000000

LOEWDIN ATOMIC CHARGES
----------------------
   0 C :   -0.000958
   1 O :   -0.003252
   2 H :   -0.001063
   3 H :   -0.000006
   4 H :   -0.000026
   5 H :   -0.000230
   6 C :   -0.409157
   7 O :   -0.056471
   8 H :    0.187072
   9 H :    0.078660
  10 H :    0.100018
  11 H :    0.105412

  Mayer bond orders larger than 0.1
B(  6-C ,  7-O ) :   1.0061 B(  6-C ,  9-H ) :   0.9728 B(  6-C , 10-H ) :   0.9880
B(  6-C , 11-H ) :   0.9809 B(  7-O ,  8-H ) :   0.8953

Dispersion correction           -0.000234467
FINAL SINGLE POINT ENERGY      -115.729654402831

DIPOLE MOMENT
-------------
                                X             Y             Z
Electronic contribution:     -1.36001      -0.93614      -0.87443
Nuclear contribution   :      1.66782       1.47377       0.60935
                        -----------------------------------------
Total Dipole Moment    :      0.30782       0.53763      -0.26508
                        -----------------------------------------
Magnitude (a.u.)       :      0.67384
Magnitude (Debye)      :      1.71277

Rotational constants in cm-1:     4.435735     0.870275     0.827188
Rotational constants in MHz : 132979.997707 26090.185569 24798.483435

                             ****ORCA TERMINATED NORMALLY****
TOTAL RUN TIME: 0 days 0 hours 0 minutes 50 seconds 460 msec
