                         Program Version 4.1.2  - RELEASE  -
|  1> #Run DFT-D3 single point of the dimer
|  2> ! wB97X-D3 def2-TZVP TIGHTSCF CHELPG PMODEL PAL8
|  3>
|  4> %base "15-47_DFT_AB"
|  5>
|  6> %scf
|  7> MaxIter 1000
|  8> end
|  9>
| 10> * xyz 0 1
| 11>   C                      7.027536             3.700445             1.588677
| 12>   O                      7.121738             4.093266             0.247516
| 13>   H                      7.366341             3.333908             -0.299382
| 14>   H                      8.023769             3.471064             2.076743
| 15>   H                      6.544191             4.464693             2.197487
| 16>   H                      6.420623             2.848499             1.708700
| 17>   C                      10.598297            2.837385             -1.801896
| 18>   O                      9.379781             3.385239             -1.482951
| 19>   H                      9.251129             4.139549             -2.120449
| 20>   H                      10.914625            2.204961             -0.999284
| 21>   H                      10.628990            2.281580             -2.793136
| 22>   H                      11.305323            3.649385             -1.894489
| 23> *
| 24>
| 25> #Run DFT-D3 single point of the molecule with dimer basis set
| 26> $new_job
| 27> %base "15-47_DFT_A"
| 28> ! wB97X-D3 def2-TZVP TIGHTSCF CHELPG PMODEL
| 29>
| 30> %scf
| 31> MaxIter 1000
| 32> end
| 33>
| 34> * xyz 0 1
| 35>   C                      7.027536             3.700445             1.588677
| 36>   O                      7.121738             4.093266             0.247516
| 37>   H                      7.366341             3.333908             -0.299382
| 38>   H                      8.023769             3.471064             2.076743
| 39>   H                      6.544191             4.464693             2.197487
| 40>   H                      6.420623             2.848499             1.708700
| 41>   C                    : 10.598297            2.837385             -1.801896
| 42>   O                    : 9.379781             3.385239             -1.482951
| 43>   H                    : 9.251129             4.139549             -2.120449
| 44>   H                    : 10.914625            2.204961             -0.999284
| 45>   H                    : 10.628990            2.281580             -2.793136
| 46>   H                    : 11.305323            3.649385             -1.894489
| 47> *
| 48>
| 49> #Run DFT-D3 single point of the particle with dimer basis set
| 50> $new_job
| 51> %base "15-47_DFT_B"
| 52> ! wB97X-D3 def2-TZVP TIGHTSCF CHELPG PMODEL
| 53>
| 54> %scf
| 55> MaxIter 1000
| 56> end
| 57>
| 58> * xyz 0 1
| 59>   C                    : 7.027536             3.700445             1.588677
| 60>   O                    : 7.121738             4.093266             0.247516
| 61>   H                    : 7.366341             3.333908             -0.299382
| 62>   H                    : 8.023769             3.471064             2.076743
| 63>   H                    : 6.544191             4.464693             2.197487
| 64>   H                    : 6.420623             2.848499             1.708700
| 65>   C                      10.598297            2.837385             -1.801896
| 66>   O                      9.379781             3.385239             -1.482951
| 67>   H                      9.251129             4.139549             -2.120449
| 68>   H                      10.914625            2.204961             -0.999284
| 69>   H                      10.628990            2.281580             -2.793136
| 70>   H                      11.305323            3.649385             -1.894489
| 71> *
| 72>
| 73>                          ****END OF INPUT****
 Total Charge           Charge          ....    0
 Multiplicity           Mult            ....    1
 Number of Electrons    NEL             ....   36
Dispersion correction           -0.001377115
FINAL SINGLE POINT ENERGY      -231.470680051452
Dispersion correction           -0.000247625
FINAL SINGLE POINT ENERGY      -115.734936115000

CARTESIAN COORDINATES (ANGSTROEM)
---------------------------------
  C      7.027536    3.700445    1.588677
  O      7.121738    4.093266    0.247516
  H      7.366341    3.333908   -0.299382
  H      8.023769    3.471064    2.076743
  H      6.544191    4.464693    2.197487
  H      6.420623    2.848499    1.708700
  C     10.598297    2.837385   -1.801896
  O      9.379781    3.385239   -1.482951
  H      9.251129    4.139549   -2.120449
  H     10.914625    2.204961   -0.999284
  H     10.628990    2.281580   -2.793136
  H     11.305323    3.649385   -1.894489

 Multiplicity           Mult            ....    1
 Number of Electrons    NEL             ....   18
 Basis Dimension        Dim             ....  172

ORBITAL ENERGIES
----------------

  NO   OCC          E(Eh)            E(eV)
   0   2.0000     -19.234299      -523.3919
   1   2.0000     -10.309646      -280.5397
   2   2.0000      -1.146064       -31.1860
   3   2.0000      -0.788856       -21.4659
   4   2.0000      -0.616554       -16.7773
   5   2.0000      -0.541842       -14.7443
   6   2.0000      -0.535221       -14.5641
   7   2.0000      -0.434813       -11.8319
   8   2.0000      -0.369061       -10.0427
   9   0.0000       0.097057         2.6410
  10   0.0000       0.115663         3.1473
  11   0.0000       0.155365         4.2277
  12   0.0000       0.192283         5.2323
  13   0.0000       0.199581         5.4309

MULLIKEN ATOMIC CHARGES
-----------------------
   0 C :   -0.001126
   1 O :    0.002043
   2 H :   -0.008910
   3 H :   -0.000479
   4 H :   -0.000051
   5 H :   -0.000035
   6 C :   -0.156052
   7 O :   -0.454793
   8 H :    0.317260
   9 H :    0.121559
  10 H :    0.086844
  11 H :    0.093740
Sum of atomic charges:    0.0000000

LOEWDIN ATOMIC CHARGES
----------------------
   0 C :   -0.001644
   1 O :   -0.005856
   2 H :   -0.017753
   3 H :   -0.000290
   4 H :   -0.000022
   5 H :   -0.000017
   6 C :   -0.420152
   7 O :   -0.042307
   8 H :    0.196111
   9 H :    0.103305
  10 H :    0.097890
  11 H :    0.090736

  Mayer bond orders larger than 0.1
B(  6-C ,  7-O ) :   1.0017 B(  6-C ,  9-H ) :   0.9755 B(  6-C , 10-H ) :   0.9663
B(  6-C , 11-H ) :   0.9857 B(  7-O ,  8-H ) :   0.8920

Dispersion correction           -0.000217562
FINAL SINGLE POINT ENERGY      -115.732173204600

DIPOLE MOMENT
-------------
                                X             Y             Z
Electronic contribution:     -1.64801       0.55192       0.60228
Nuclear contribution   :      2.03395      -0.26355      -1.08688
                        -----------------------------------------
Total Dipole Moment    :      0.38594       0.28837      -0.48460
                        -----------------------------------------
Magnitude (a.u.)       :      0.68333
Magnitude (Debye)      :      1.73689

Rotational constants in cm-1:     4.187261     0.876342     0.839772
Rotational constants in MHz : 125530.938758 26272.071201 25175.729150

                             ****ORCA TERMINATED NORMALLY****
TOTAL RUN TIME: 0 days 0 hours 1 minutes 4 seconds 858 msec
