                         Program Version 4.1.2  - RELEASE  -
|  1> #Run DFT-D3 single point of the dimer
|  2> ! wB97X-D3 def2-TZVP TIGHTSCF CHELPG PMODEL PAL8
|  3>
|  4> %base "18-36_DFT_AB"
|  5>
|  6> %scf
|  7> MaxIter 1000
|  8> end
|  9>
| 10> * xyz 0 1
| 11>   C                      5.188788             2.614549             -0.430988
| 12>   O                      4.272714             3.629414             -0.212891
| 13>   H                      4.735754             4.461235             -0.188900
| 14>   H                      5.899015             2.492255             0.391204
| 15>   H                      4.718363             1.670627             -0.695147
| 16>   H                      5.822392             2.953750             -1.309417
| 17>   C                      9.594464             4.031848             -3.485780
| 18>   O                      9.433977             3.221107             -4.602122
| 19>   H                      8.485264             3.237819             -4.857603
| 20>   H                      10.137413            4.976285             -3.732843
| 21>   H                      8.576874             4.279058             -3.077147
| 22>   H                      10.282381            3.611429             -2.695346
| 23> *
| 24>
| 25> #Run DFT-D3 single point of the molecule with dimer basis set
| 26> $new_job
| 27> %base "18-36_DFT_A"
| 28> ! wB97X-D3 def2-TZVP TIGHTSCF CHELPG PMODEL
| 29>
| 30> %scf
| 31> MaxIter 1000
| 32> end
| 33>
| 34> * xyz 0 1
| 35>   C                      5.188788             2.614549             -0.430988
| 36>   O                      4.272714             3.629414             -0.212891
| 37>   H                      4.735754             4.461235             -0.188900
| 38>   H                      5.899015             2.492255             0.391204
| 39>   H                      4.718363             1.670627             -0.695147
| 40>   H                      5.822392             2.953750             -1.309417
| 41>   C                    : 9.594464             4.031848             -3.485780
| 42>   O                    : 9.433977             3.221107             -4.602122
| 43>   H                    : 8.485264             3.237819             -4.857603
| 44>   H                    : 10.137413            4.976285             -3.732843
| 45>   H                    : 8.576874             4.279058             -3.077147
| 46>   H                    : 10.282381            3.611429             -2.695346
| 47> *
| 48>
| 49> #Run DFT-D3 single point of the particle with dimer basis set
| 50> $new_job
| 51> %base "18-36_DFT_B"
| 52> ! wB97X-D3 def2-TZVP TIGHTSCF CHELPG PMODEL
| 53>
| 54> %scf
| 55> MaxIter 1000
| 56> end
| 57>
| 58> * xyz 0 1
| 59>   C                    : 5.188788             2.614549             -0.430988
| 60>   O                    : 4.272714             3.629414             -0.212891
| 61>   H                    : 4.735754             4.461235             -0.188900
| 62>   H                    : 5.899015             2.492255             0.391204
| 63>   H                    : 4.718363             1.670627             -0.695147
| 64>   H                    : 5.822392             2.953750             -1.309417
| 65>   C                      9.594464             4.031848             -3.485780
| 66>   O                      9.433977             3.221107             -4.602122
| 67>   H                      8.485264             3.237819             -4.857603
| 68>   H                      10.137413            4.976285             -3.732843
| 69>   H                      8.576874             4.279058             -3.077147
| 70>   H                      10.282381            3.611429             -2.695346
| 71> *
| 72>
| 73>                          ****END OF INPUT****
 Total Charge           Charge          ....    0
 Multiplicity           Mult            ....    1
 Number of Electrons    NEL             ....   36
Dispersion correction           -0.000696958
FINAL SINGLE POINT ENERGY      -231.463655957022
Dispersion correction           -0.000220553
FINAL SINGLE POINT ENERGY      -115.733210763334

CARTESIAN COORDINATES (ANGSTROEM)
---------------------------------
  C      5.188788    2.614549   -0.430988
  O      4.272714    3.629414   -0.212891
  H      4.735754    4.461235   -0.188900
  H      5.899015    2.492255    0.391204
  H      4.718363    1.670627   -0.695147
  H      5.822392    2.953750   -1.309417
  C      9.594464    4.031848   -3.485780
  O      9.433977    3.221107   -4.602122
  H      8.485264    3.237819   -4.857603
  H     10.137413    4.976285   -3.732843
  H      8.576874    4.279058   -3.077147
  H     10.282381    3.611429   -2.695346

 Multiplicity           Mult            ....    1
 Number of Electrons    NEL             ....   18
 Basis Dimension        Dim             ....  172

ORBITAL ENERGIES
----------------

  NO   OCC          E(Eh)            E(eV)
   0   2.0000     -19.233237      -523.3630
   1   2.0000     -10.320779      -280.8427
   2   2.0000      -1.141471       -31.0610
   3   2.0000      -0.786075       -21.3902
   4   2.0000      -0.612859       -16.6767
   5   2.0000      -0.541608       -14.7379
   6   2.0000      -0.527948       -14.3662
   7   2.0000      -0.429975       -11.7002
   8   2.0000      -0.367224        -9.9927
   9   0.0000       0.079018         2.1502
  10   0.0000       0.108501         2.9525
  11   0.0000       0.150447         4.0939
  12   0.0000       0.162338         4.4174
  13   0.0000       0.181830         4.9479

MULLIKEN ATOMIC CHARGES
-----------------------
   0 C :   -0.000139
   1 O :    0.000006
   2 H :   -0.000005
   3 H :    0.000005
   4 H :   -0.000000
   5 H :    0.000151
   6 C :   -0.165399
   7 O :   -0.463565
   8 H :    0.322917
   9 H :    0.099603
  10 H :    0.095756
  11 H :    0.110670
Sum of atomic charges:    0.0000000

LOEWDIN ATOMIC CHARGES
----------------------
   0 C :   -0.000057
   1 O :   -0.000001
   2 H :   -0.000003
   3 H :   -0.000003
   4 H :   -0.000000
   5 H :   -0.000183
   6 C :   -0.419465
   7 O :   -0.071465
   8 H :    0.187275
   9 H :    0.097135
  10 H :    0.099948
  11 H :    0.106819

  Mayer bond orders larger than 0.1
B(  6-C ,  7-O ) :   1.0179 B(  6-C ,  9-H ) :   0.9729 B(  6-C , 10-H ) :   0.9892
B(  6-C , 11-H ) :   0.9713 B(  7-O ,  8-H ) :   0.8930

Dispersion correction           -0.000250950
FINAL SINGLE POINT ENERGY      -115.730359065167

DIPOLE MOMENT
-------------
                                X             Y             Z
Electronic contribution:     -0.11990      -1.18653      -1.49290
Nuclear contribution   :     -0.43482       1.49445       1.73940
                        -----------------------------------------
Total Dipole Moment    :     -0.55472       0.30793       0.24650
                        -----------------------------------------
Magnitude (a.u.)       :      0.68066
Magnitude (Debye)      :      1.73011

Rotational constants in cm-1:     4.141235     0.851545     0.807069
Rotational constants in MHz : 124151.099606 25528.673324 24195.316377

                             ****ORCA TERMINATED NORMALLY****
TOTAL RUN TIME: 0 days 0 hours 1 minutes 0 seconds 543 msec
