                         Program Version 4.1.2  - RELEASE  -
|  1> #Run DFT-D3 single point of the dimer
|  2> ! wB97X-D3 def2-TZVP TIGHTSCF CHELPG PMODEL PAL8
|  3>
|  4> %base "13-10_DFT_AB"
|  5>
|  6> %scf
|  7> MaxIter 1000
|  8> end
|  9>
| 10> * xyz 0 1
| 11>   C                      -2.257604            -6.993449            -0.918277
| 12>   O                      -2.080523            -8.395982            -0.827367
| 13>   H                      -2.059170            -8.743386            0.111713
| 14>   H                      -1.423130            -6.407729            -0.539471
| 15>   H                      -2.370768            -6.724110            -2.003700
| 16>   H                      -3.147931            -6.621619            -0.383193
| 17>   C                      0.931299             -4.887291            1.729372
| 18>   O                      1.899001             -4.635179            0.812990
| 19>   H                      2.752696             -4.659677            1.330891
| 20>   H                      1.230511             -5.631169            2.488092
| 21>   H                      0.711567             -3.944448            2.221123
| 22>   H                      -0.019507            -5.280675            1.303522
| 23> *
| 24>
| 25> #Run DFT-D3 single point of the molecule with dimer basis set
| 26> $new_job
| 27> %base "13-10_DFT_A"
| 28> ! wB97X-D3 def2-TZVP TIGHTSCF CHELPG PMODEL
| 29>
| 30> %scf
| 31> MaxIter 1000
| 32> end
| 33>
| 34> * xyz 0 1
| 35>   C                      -2.257604            -6.993449            -0.918277
| 36>   O                      -2.080523            -8.395982            -0.827367
| 37>   H                      -2.059170            -8.743386            0.111713
| 38>   H                      -1.423130            -6.407729            -0.539471
| 39>   H                      -2.370768            -6.724110            -2.003700
| 40>   H                      -3.147931            -6.621619            -0.383193
| 41>   C                    : 0.931299             -4.887291            1.729372
| 42>   O                    : 1.899001             -4.635179            0.812990
| 43>   H                    : 2.752696             -4.659677            1.330891
| 44>   H                    : 1.230511             -5.631169            2.488092
| 45>   H                    : 0.711567             -3.944448            2.221123
| 46>   H                    : -0.019507            -5.280675            1.303522
| 47> *
| 48>
| 49> #Run DFT-D3 single point of the particle with dimer basis set
| 50> $new_job
| 51> %base "13-10_DFT_B"
| 52> ! wB97X-D3 def2-TZVP TIGHTSCF CHELPG PMODEL
| 53>
| 54> %scf
| 55> MaxIter 1000
| 56> end
| 57>
| 58> * xyz 0 1
| 59>   C                    : -2.257604            -6.993449            -0.918277
| 60>   O                    : -2.080523            -8.395982            -0.827367
| 61>   H                    : -2.059170            -8.743386            0.111713
| 62>   H                    : -1.423130            -6.407729            -0.539471
| 63>   H                    : -2.370768            -6.724110            -2.003700
| 64>   H                    : -3.147931            -6.621619            -0.383193
| 65>   C                      0.931299             -4.887291            1.729372
| 66>   O                      1.899001             -4.635179            0.812990
| 67>   H                      2.752696             -4.659677            1.330891
| 68>   H                      1.230511             -5.631169            2.488092
| 69>   H                      0.711567             -3.944448            2.221123
| 70>   H                      -0.019507            -5.280675            1.303522
| 71> *
| 72>
| 73>                          ****END OF INPUT****
 Total Charge           Charge          ....    0
 Multiplicity           Mult            ....    1
 Number of Electrons    NEL             ....   36
Dispersion correction           -0.001019344
FINAL SINGLE POINT ENERGY      -231.463903940047
Dispersion correction           -0.000274567
FINAL SINGLE POINT ENERGY      -115.733717445820

CARTESIAN COORDINATES (ANGSTROEM)
---------------------------------
  C     -2.257604   -6.993449   -0.918277
  O     -2.080523   -8.395982   -0.827367
  H     -2.059170   -8.743386    0.111713
  H     -1.423130   -6.407729   -0.539471
  H     -2.370768   -6.724110   -2.003700
  H     -3.147931   -6.621619   -0.383193
  C      0.931299   -4.887291    1.729372
  O      1.899001   -4.635179    0.812990
  H      2.752696   -4.659677    1.330891
  H      1.230511   -5.631169    2.488092
  H      0.711567   -3.944448    2.221123
  H     -0.019507   -5.280675    1.303522

 Multiplicity           Mult            ....    1
 Number of Electrons    NEL             ....   18
 Basis Dimension        Dim             ....  172

ORBITAL ENERGIES
----------------

  NO   OCC          E(Eh)            E(eV)
   0   2.0000     -19.233646      -523.3741
   1   2.0000     -10.309211      -280.5279
   2   2.0000      -1.151601       -31.3366
   3   2.0000      -0.785451       -21.3732
   4   2.0000      -0.616651       -16.7799
   5   2.0000      -0.551691       -15.0123
   6   2.0000      -0.533150       -14.5078
   7   2.0000      -0.427523       -11.6335
   8   2.0000      -0.367962       -10.0128
   9   0.0000       0.088293         2.4026
  10   0.0000       0.109617         2.9828
  11   0.0000       0.157246         4.2789
  12   0.0000       0.164677         4.4811
  13   0.0000       0.189782         5.1642

MULLIKEN ATOMIC CHARGES
-----------------------
   0 C :   -0.003449
   1 O :    0.000023
   2 H :    0.000000
   3 H :    0.005677
   4 H :    0.000091
   5 H :    0.000121
   6 C :   -0.162774
   7 O :   -0.456470
   8 H :    0.322313
   9 H :    0.094968
  10 H :    0.096670
  11 H :    0.102830
Sum of atomic charges:    0.0000000

LOEWDIN ATOMIC CHARGES
----------------------
   0 C :   -0.001100
   1 O :   -0.000005
   2 H :   -0.000011
   3 H :   -0.002262
   4 H :   -0.000004
   5 H :   -0.000031
   6 C :   -0.441783
   7 O :   -0.050099
   8 H :    0.201147
   9 H :    0.093875
  10 H :    0.091240
  11 H :    0.109033

  Mayer bond orders larger than 0.1
B(  6-C ,  7-O ) :   1.0140 B(  6-C ,  9-H ) :   0.9831 B(  6-C , 10-H ) :   0.9875
B(  6-C , 11-H ) :   0.9679 B(  7-O ,  8-H ) :   0.8900

Dispersion correction           -0.000211515
FINAL SINGLE POINT ENERGY      -115.729912520374

DIPOLE MOMENT
-------------
                                X             Y             Z
Electronic contribution:      1.22102       0.32732      -1.41931
Nuclear contribution   :     -1.02736      -0.44333       2.05960
                        -----------------------------------------
Total Dipole Moment    :      0.19366      -0.11601       0.64029
                        -----------------------------------------
Magnitude (a.u.)       :      0.67892
Magnitude (Debye)      :      1.72568

Rotational constants in cm-1:     4.205229     0.888228     0.852130
Rotational constants in MHz : 126069.600612 26628.418357 25546.227796

                             ****ORCA TERMINATED NORMALLY****
TOTAL RUN TIME: 0 days 0 hours 1 minutes 5 seconds 592 msec
