                         Program Version 4.1.2  - RELEASE  -
|  1> #Run DFT-D3 single point of the dimer
|  2> ! wB97X-D3 def2-TZVP TIGHTSCF CHELPG PMODEL PAL8
|  3>
|  4> %base "6-182_DFT_AB"
|  5>
|  6> %scf
|  7> MaxIter 1000
|  8> end
|  9>
| 10> * xyz 0 1
| 11>   C                      -4.140601            4.017611             -3.706493
| 12>   O                      -4.263904            3.967901             -2.364951
| 13>   H                      -5.079723            4.217883             -1.945731
| 14>   H                      -4.671570            3.223314             -4.151186
| 15>   H                      -4.523097            4.919380             -4.129298
| 16>   H                      -3.104929            3.963434             -3.947013
| 17>   C                      -7.280844            6.258362             -1.869373
| 18>   O                      -6.851826            4.897914             -1.855006
| 19>   H                      -6.765872            4.622303             -0.926568
| 20>   H                      -6.437297            6.972732             -1.824910
| 21>   H                      -7.547841            6.518450             -2.920986
| 22>   H                      -8.073158            6.482182             -1.205432
| 23> *
| 24>
| 25> #Run DFT-D3 single point of the molecule with dimer basis set
| 26> $new_job
| 27> %base "6-182_DFT_A"
| 28> ! wB97X-D3 def2-TZVP TIGHTSCF CHELPG PMODEL
| 29>
| 30> %scf
| 31> MaxIter 1000
| 32> end
| 33>
| 34> * xyz 0 1
| 35>   C                      -4.140601            4.017611             -3.706493
| 36>   O                      -4.263904            3.967901             -2.364951
| 37>   H                      -5.079723            4.217883             -1.945731
| 38>   H                      -4.671570            3.223314             -4.151186
| 39>   H                      -4.523097            4.919380             -4.129298
| 40>   H                      -3.104929            3.963434             -3.947013
| 41>   C                    : -7.280844            6.258362             -1.869373
| 42>   O                    : -6.851826            4.897914             -1.855006
| 43>   H                    : -6.765872            4.622303             -0.926568
| 44>   H                    : -6.437297            6.972732             -1.824910
| 45>   H                    : -7.547841            6.518450             -2.920986
| 46>   H                    : -8.073158            6.482182             -1.205432
| 47> *
| 48>
| 49> #Run DFT-D3 single point of the particle with dimer basis set
| 50> $new_job
| 51> %base "6-182_DFT_B"
| 52> ! wB97X-D3 def2-TZVP TIGHTSCF CHELPG PMODEL
| 53>
| 54> %scf
| 55> MaxIter 1000
| 56> end
| 57>
| 58> * xyz 0 1
| 59>   C                    : -4.140601            4.017611             -3.706493
| 60>   O                    : -4.263904            3.967901             -2.364951
| 61>   H                    : -5.079723            4.217883             -1.945731
| 62>   H                    : -4.671570            3.223314             -4.151186
| 63>   H                    : -4.523097            4.919380             -4.129298
| 64>   H                    : -3.104929            3.963434             -3.947013
| 65>   C                      -7.280844            6.258362             -1.869373
| 66>   O                      -6.851826            4.897914             -1.855006
| 67>   H                      -6.765872            4.622303             -0.926568
| 68>   H                      -6.437297            6.972732             -1.824910
| 69>   H                      -7.547841            6.518450             -2.920986
| 70>   H                      -8.073158            6.482182             -1.205432
| 71> *
| 72>
| 73>                          ****END OF INPUT****
 Total Charge           Charge          ....    0
 Multiplicity           Mult            ....    1
 Number of Electrons    NEL             ....   36
Dispersion correction           -0.001859251
FINAL SINGLE POINT ENERGY      -231.464983942773
Dispersion correction           -0.000224283
FINAL SINGLE POINT ENERGY      -115.729704340674

CARTESIAN COORDINATES (ANGSTROEM)
---------------------------------
  C     -4.140601    4.017611   -3.706493
  O     -4.263904    3.967901   -2.364951
  H     -5.079723    4.217883   -1.945731
  H     -4.671570    3.223314   -4.151186
  H     -4.523097    4.919380   -4.129298
  H     -3.104929    3.963434   -3.947013
  C     -7.280844    6.258362   -1.869373
  O     -6.851826    4.897914   -1.855006
  H     -6.765872    4.622303   -0.926568
  H     -6.437297    6.972732   -1.824910
  H     -7.547841    6.518450   -2.920986
  H     -8.073158    6.482182   -1.205432

 Multiplicity           Mult            ....    1
 Number of Electrons    NEL             ....   18
 Basis Dimension        Dim             ....  172

ORBITAL ENERGIES
----------------

  NO   OCC          E(Eh)            E(eV)
   0   2.0000     -19.234625      -523.4008
   1   2.0000     -10.314024      -280.6589
   2   2.0000      -1.131530       -30.7905
   3   2.0000      -0.797890       -21.7117
   4   2.0000      -0.609288       -16.5796
   5   2.0000      -0.550526       -14.9806
   6   2.0000      -0.515939       -14.0394
   7   2.0000      -0.434732       -11.8297
   8   2.0000      -0.373511       -10.1638
   9   0.0000       0.097545         2.6543
  10   0.0000       0.128296         3.4911
  11   0.0000       0.146465         3.9855
  12   0.0000       0.187920         5.1136
  13   0.0000       0.193276         5.2593

MULLIKEN ATOMIC CHARGES
-----------------------
   0 C :    0.008566
   1 O :    0.008949
   2 H :   -0.035740
   3 H :   -0.001579
   4 H :   -0.002669
   5 H :   -0.000198
   6 C :   -0.166972
   7 O :   -0.457544
   8 H :    0.316086
   9 H :    0.100715
  10 H :    0.112421
  11 H :    0.117966
Sum of atomic charges:   -0.0000000

LOEWDIN ATOMIC CHARGES
----------------------
   0 C :   -0.005814
   1 O :   -0.007509
   2 H :   -0.046561
   3 H :   -0.000427
   4 H :   -0.000931
   5 H :   -0.000097
   6 C :   -0.383201
   7 O :   -0.039017
   8 H :    0.178971
   9 H :    0.099305
  10 H :    0.115194
  11 H :    0.090088

  Mayer bond orders larger than 0.1
B(  6-C ,  7-O ) :   1.0008 B(  6-C ,  9-H ) :   0.9760 B(  6-C , 10-H ) :   0.9783
B(  6-C , 11-H ) :   0.9699 B(  7-O ,  8-H ) :   0.8956

Dispersion correction           -0.000259847
FINAL SINGLE POINT ENERGY      -115.730995504530

DIPOLE MOMENT
-------------
                                X             Y             Z
Electronic contribution:      0.41449      -1.79473       0.09538
Nuclear contribution   :     -0.55546       2.18027       0.46465
                        -----------------------------------------
Total Dipole Moment    :     -0.14097       0.38554       0.56002
                        -----------------------------------------
Magnitude (a.u.)       :      0.69436
Magnitude (Debye)      :      1.76493

Rotational constants in cm-1:     4.346536     0.816757     0.783153
Rotational constants in MHz : 130305.874376 24485.754483 23478.330152

                             ****ORCA TERMINATED NORMALLY****
TOTAL RUN TIME: 0 days 0 hours 1 minutes 9 seconds 470 msec
