                         Program Version 4.1.2  - RELEASE  -
|  1> #Run DFT-D3 single point of the dimer
|  2> ! wB97X-D3 def2-TZVP TIGHTSCF CHELPG PMODEL PAL8
|  3>
|  4> %base "19-181_DFT_AB"
|  5>
|  6> %scf
|  7> MaxIter 1000
|  8> end
|  9>
| 10> * xyz 0 1
| 11>   C                      2.150202             -4.868944            5.313812
| 12>   O                      1.539903             -3.847500            6.025287
| 13>   H                      1.102995             -3.372393            5.293624
| 14>   H                      2.596078             -5.698066            5.913052
| 15>   H                      1.498631             -5.241180            4.529990
| 16>   H                      2.939477             -4.406176            4.686918
| 17>   C                      1.309229             -1.618359            3.048068
| 18>   O                      0.618711             -2.653348            3.660415
| 19>   H                      0.034684             -2.996127            2.985988
| 20>   H                      1.705704             -1.835364            2.022964
| 21>   H                      0.725643             -0.628895            2.983214
| 22>   H                      2.138539             -1.223666            3.657437
| 23> *
| 24>
| 25> #Run DFT-D3 single point of the molecule with dimer basis set
| 26> $new_job
| 27> %base "19-181_DFT_A"
| 28> ! wB97X-D3 def2-TZVP TIGHTSCF CHELPG PMODEL
| 29>
| 30> %scf
| 31> MaxIter 1000
| 32> end
| 33>
| 34> * xyz 0 1
| 35>   C                      2.150202             -4.868944            5.313812
| 36>   O                      1.539903             -3.847500            6.025287
| 37>   H                      1.102995             -3.372393            5.293624
| 38>   H                      2.596078             -5.698066            5.913052
| 39>   H                      1.498631             -5.241180            4.529990
| 40>   H                      2.939477             -4.406176            4.686918
| 41>   C                    : 1.309229             -1.618359            3.048068
| 42>   O                    : 0.618711             -2.653348            3.660415
| 43>   H                    : 0.034684             -2.996127            2.985988
| 44>   H                    : 1.705704             -1.835364            2.022964
| 45>   H                    : 0.725643             -0.628895            2.983214
| 46>   H                    : 2.138539             -1.223666            3.657437
| 47> *
| 48>
| 49> #Run DFT-D3 single point of the particle with dimer basis set
| 50> $new_job
| 51> %base "19-181_DFT_B"
| 52> ! wB97X-D3 def2-TZVP TIGHTSCF CHELPG PMODEL
| 53>
| 54> %scf
| 55> MaxIter 1000
| 56> end
| 57>
| 58> * xyz 0 1
| 59>   C                    : 2.150202             -4.868944            5.313812
| 60>   O                    : 1.539903             -3.847500            6.025287
| 61>   H                    : 1.102995             -3.372393            5.293624
| 62>   H                    : 2.596078             -5.698066            5.913052
| 63>   H                    : 1.498631             -5.241180            4.529990
| 64>   H                    : 2.939477             -4.406176            4.686918
| 65>   C                      1.309229             -1.618359            3.048068
| 66>   O                      0.618711             -2.653348            3.660415
| 67>   H                      0.034684             -2.996127            2.985988
| 68>   H                      1.705704             -1.835364            2.022964
| 69>   H                      0.725643             -0.628895            2.983214
| 70>   H                      2.138539             -1.223666            3.657437
| 71> *
| 72>
| 73>                          ****END OF INPUT****
 Total Charge           Charge          ....    0
 Multiplicity           Mult            ....    1
 Number of Electrons    NEL             ....   36
Dispersion correction           -0.002060035
FINAL SINGLE POINT ENERGY      -231.468578190509
Dispersion correction           -0.000203334
FINAL SINGLE POINT ENERGY      -115.728278751536

CARTESIAN COORDINATES (ANGSTROEM)
---------------------------------
  C      2.150202   -4.868944    5.313812
  O      1.539903   -3.847500    6.025287
  H      1.102995   -3.372393    5.293624
  H      2.596078   -5.698066    5.913052
  H      1.498631   -5.241180    4.529990
  H      2.939477   -4.406176    4.686918
  C      1.309229   -1.618359    3.048068
  O      0.618711   -2.653348    3.660415
  H      0.034684   -2.996127    2.985988
  H      1.705704   -1.835364    2.022964
  H      0.725643   -0.628895    2.983214
  H      2.138539   -1.223666    3.657437

 Multiplicity           Mult            ....    1
 Number of Electrons    NEL             ....   18
 Basis Dimension        Dim             ....  172

ORBITAL ENERGIES
----------------

  NO   OCC          E(Eh)            E(eV)
   0   2.0000     -19.239181      -523.5247
   1   2.0000     -10.320995      -280.8485
   2   2.0000      -1.152280       -31.3551
   3   2.0000      -0.791018       -21.5247
   4   2.0000      -0.618505       -16.8304
   5   2.0000      -0.542914       -14.7734
   6   2.0000      -0.527048       -14.3417
   7   2.0000      -0.435255       -11.8439
   8   2.0000      -0.372777       -10.1438
   9   0.0000       0.098916         2.6916
  10   0.0000       0.129966         3.5366
  11   0.0000       0.146534         3.9874
  12   0.0000       0.185040         5.0352
  13   0.0000       0.200033         5.4432

MULLIKEN ATOMIC CHARGES
-----------------------
   0 C :    0.016430
   1 O :   -0.000528
   2 H :   -0.010460
   3 H :   -0.000292
   4 H :   -0.010672
   5 H :   -0.004978
   6 C :   -0.175318
   7 O :   -0.444839
   8 H :    0.315828
   9 H :    0.102584
  10 H :    0.089960
  11 H :    0.122285
Sum of atomic charges:    0.0000000

LOEWDIN ATOMIC CHARGES
----------------------
   0 C :   -0.011149
   1 O :   -0.005135
   2 H :   -0.046622
   3 H :   -0.000129
   4 H :   -0.004281
   5 H :   -0.001478
   6 C :   -0.424728
   7 O :    0.009747
   8 H :    0.173933
   9 H :    0.098888
  10 H :    0.100974
  11 H :    0.109980

  Mayer bond orders larger than 0.1
B(  6-C ,  7-O ) :   1.0055 B(  6-C ,  9-H ) :   0.9702 B(  6-C , 10-H ) :   0.9684
B(  6-C , 11-H ) :   0.9769 B(  7-O ,  8-H ) :   0.8964

Dispersion correction           -0.000259163
FINAL SINGLE POINT ENERGY      -115.731321564019

DIPOLE MOMENT
-------------
                                X             Y             Z
Electronic contribution:     -0.86837      -1.59873       0.95186
Nuclear contribution   :      0.77046       1.75904      -1.58767
                        -----------------------------------------
Total Dipole Moment    :     -0.09792       0.16031      -0.63580
                        -----------------------------------------
Magnitude (a.u.)       :      0.66297
Magnitude (Debye)      :      1.68514

Rotational constants in cm-1:     4.279556     0.839770     0.808250
Rotational constants in MHz : 128297.849164 25175.680956 24230.720088

                             ****ORCA TERMINATED NORMALLY****
TOTAL RUN TIME: 0 days 0 hours 1 minutes 42 seconds 164 msec
