                         Program Version 4.1.2  - RELEASE  -
|  1> #Run DFT-D3 single point of the dimer
|  2> ! wB97X-D3 def2-TZVP TIGHTSCF CHELPG PMODEL PAL8
|  3>
|  4> %base "21-21_DFT_AB"
|  5>
|  6> %scf
|  7> MaxIter 1000
|  8> end
|  9>
| 10> * xyz 0 1
| 11>   C                      -3.092686            -1.451874            10.711364
| 12>   O                      -2.273163            -2.540808            10.545648
| 13>   H                      -2.684214            -3.268882            11.063944
| 14>   H                      -4.148534            -1.721086            10.677316
| 15>   H                      -2.829864            -0.967831            11.633750
| 16>   H                      -2.944506            -0.806253            9.884226
| 17>   C                      -3.712011            -5.777773            10.220480
| 18>   O                      -3.182050            -5.154310            11.308558
| 19>   H                      -3.078818            -5.835149            12.033996
| 20>   H                      -4.135902            -4.986373            9.601358
| 21>   H                      -2.973094            -6.301456            9.614988
| 22>   H                      -4.515490            -6.388206            10.536584
| 23> *
| 24>
| 25> #Run DFT-D3 single point of the molecule with dimer basis set
| 26> $new_job
| 27> %base "21-21_DFT_A"
| 28> ! wB97X-D3 def2-TZVP TIGHTSCF CHELPG PMODEL
| 29>
| 30> %scf
| 31> MaxIter 1000
| 32> end
| 33>
| 34> * xyz 0 1
| 35>   C                      -3.092686            -1.451874            10.711364
| 36>   O                      -2.273163            -2.540808            10.545648
| 37>   H                      -2.684214            -3.268882            11.063944
| 38>   H                      -4.148534            -1.721086            10.677316
| 39>   H                      -2.829864            -0.967831            11.633750
| 40>   H                      -2.944506            -0.806253            9.884226
| 41>   C                    : -3.712011            -5.777773            10.220480
| 42>   O                    : -3.182050            -5.154310            11.308558
| 43>   H                    : -3.078818            -5.835149            12.033996
| 44>   H                    : -4.135902            -4.986373            9.601358
| 45>   H                    : -2.973094            -6.301456            9.614988
| 46>   H                    : -4.515490            -6.388206            10.536584
| 47> *
| 48>
| 49> #Run DFT-D3 single point of the particle with dimer basis set
| 50> $new_job
| 51> %base "21-21_DFT_B"
| 52> ! wB97X-D3 def2-TZVP TIGHTSCF CHELPG PMODEL
| 53>
| 54> %scf
| 55> MaxIter 1000
| 56> end
| 57>
| 58> * xyz 0 1
| 59>   C                    : -3.092686            -1.451874            10.711364
| 60>   O                    : -2.273163            -2.540808            10.545648
| 61>   H                    : -2.684214            -3.268882            11.063944
| 62>   H                    : -4.148534            -1.721086            10.677316
| 63>   H                    : -2.829864            -0.967831            11.633750
| 64>   H                    : -2.944506            -0.806253            9.884226
| 65>   C                      -3.712011            -5.777773            10.220480
| 66>   O                      -3.182050            -5.154310            11.308558
| 67>   H                      -3.078818            -5.835149            12.033996
| 68>   H                      -4.135902            -4.986373            9.601358
| 69>   H                      -2.973094            -6.301456            9.614988
| 70>   H                      -4.515490            -6.388206            10.536584
| 71> *
| 72>
| 73>                          ****END OF INPUT****
 Total Charge           Charge          ....    0
 Multiplicity           Mult            ....    1
 Number of Electrons    NEL             ....   36
Dispersion correction           -0.001673781
FINAL SINGLE POINT ENERGY      -231.472731254289
Dispersion correction           -0.000205283
FINAL SINGLE POINT ENERGY      -115.733344754120

CARTESIAN COORDINATES (ANGSTROEM)
---------------------------------
  C     -3.092686   -1.451874   10.711364
  O     -2.273163   -2.540808   10.545648
  H     -2.684214   -3.268882   11.063944
  H     -4.148534   -1.721086   10.677316
  H     -2.829864   -0.967831   11.633750
  H     -2.944506   -0.806253    9.884226
  C     -3.712011   -5.777773   10.220480
  O     -3.182050   -5.154310   11.308558
  H     -3.078818   -5.835149   12.033996
  H     -4.135902   -4.986373    9.601358
  H     -2.973094   -6.301456    9.614988
  H     -4.515490   -6.388206   10.536584

 Multiplicity           Mult            ....    1
 Number of Electrons    NEL             ....   18
 Basis Dimension        Dim             ....  172

ORBITAL ENERGIES
----------------

  NO   OCC          E(Eh)            E(eV)
   0   2.0000     -19.231008      -523.3023
   1   2.0000     -10.301842      -280.3274
   2   2.0000      -1.146455       -31.1966
   3   2.0000      -0.791139       -21.5280
   4   2.0000      -0.615824       -16.7574
   5   2.0000      -0.556222       -15.1356
   6   2.0000      -0.531011       -14.4495
   7   2.0000      -0.425541       -11.5796
   8   2.0000      -0.370931       -10.0935
   9   0.0000       0.097321         2.6482
  10   0.0000       0.118127         3.2144
  11   0.0000       0.158148         4.3034
  12   0.0000       0.190974         5.1967
  13   0.0000       0.201670         5.4877

MULLIKEN ATOMIC CHARGES
-----------------------
   0 C :    0.000071
   1 O :    0.000151
   2 H :   -0.008543
   3 H :   -0.000635
   4 H :   -0.000045
   5 H :   -0.000060
   6 C :   -0.144358
   7 O :   -0.463830
   8 H :    0.313158
   9 H :    0.111793
  10 H :    0.091404
  11 H :    0.100894
Sum of atomic charges:   -0.0000000

LOEWDIN ATOMIC CHARGES
----------------------
   0 C :   -0.001247
   1 O :   -0.004905
   2 H :   -0.038238
   3 H :   -0.000210
   4 H :   -0.000013
   5 H :   -0.000015
   6 C :   -0.420541
   7 O :   -0.020194
   8 H :    0.194321
   9 H :    0.110002
  10 H :    0.091740
  11 H :    0.089300

  Mayer bond orders larger than 0.1
B(  6-C ,  7-O ) :   0.9975 B(  6-C ,  9-H ) :   0.9796 B(  6-C , 10-H ) :   0.9720
B(  6-C , 11-H ) :   0.9818 B(  7-O ,  8-H ) :   0.8911

Dispersion correction           -0.000212050
FINAL SINGLE POINT ENERGY      -115.731527423307

DIPOLE MOMENT
-------------
                                X             Y             Z
Electronic contribution:      0.71059       0.84126       1.34949
Nuclear contribution   :     -0.87047      -1.49155      -1.28896
                        -----------------------------------------
Total Dipole Moment    :     -0.15987      -0.65029       0.06053
                        -----------------------------------------
Magnitude (a.u.)       :      0.67238
Magnitude (Debye)      :      1.70906

Rotational constants in cm-1:     4.272832     0.890737     0.859413
Rotational constants in MHz : 128096.269036 26703.614679 25764.547630

                             ****ORCA TERMINATED NORMALLY****
TOTAL RUN TIME: 0 days 0 hours 1 minutes 6 seconds 820 msec
