                         Program Version 4.1.2  - RELEASE  -
|  1> #Run DFT-D3 single point of the dimer
|  2> ! wB97X-D3 def2-TZVP TIGHTSCF CHELPG PMODEL PAL8
|  3>
|  4> %base "17-54_DFT_AB"
|  5>
|  6> %scf
|  7> MaxIter 1000
|  8> end
|  9>
| 10> * xyz 0 1
| 11>   C                      -8.719428            -0.806688            2.256153
| 12>   O                      -10.041191           -1.234781            2.494380
| 13>   H                      -10.144787           -1.521010            3.361301
| 14>   H                      -8.220031            -0.383521            3.209562
| 15>   H                      -8.128405            -1.587988            1.732554
| 16>   H                      -8.726105            0.059084             1.528395
| 17>   C                      -6.565968            -3.021015            -0.286961
| 18>   O                      -7.870317            -2.524230            -0.457635
| 19>   H                      -8.464050            -3.263168            -0.428365
| 20>   H                      -6.375784            -3.424887            0.682798
| 21>   H                      -6.358553            -3.812381            -1.019314
| 22>   H                      -5.921900            -2.184792            -0.507281
| 23> *
| 24>
| 25> #Run DFT-D3 single point of the molecule with dimer basis set
| 26> $new_job
| 27> %base "17-54_DFT_A"
| 28> ! wB97X-D3 def2-TZVP TIGHTSCF CHELPG PMODEL
| 29>
| 30> %scf
| 31> MaxIter 1000
| 32> end
| 33>
| 34> * xyz 0 1
| 35>   C                      -8.719428            -0.806688            2.256153
| 36>   O                      -10.041191           -1.234781            2.494380
| 37>   H                      -10.144787           -1.521010            3.361301
| 38>   H                      -8.220031            -0.383521            3.209562
| 39>   H                      -8.128405            -1.587988            1.732554
| 40>   H                      -8.726105            0.059084             1.528395
| 41>   C                    : -6.565968            -3.021015            -0.286961
| 42>   O                    : -7.870317            -2.524230            -0.457635
| 43>   H                    : -8.464050            -3.263168            -0.428365
| 44>   H                    : -6.375784            -3.424887            0.682798
| 45>   H                    : -6.358553            -3.812381            -1.019314
| 46>   H                    : -5.921900            -2.184792            -0.507281
| 47> *
| 48>
| 49> #Run DFT-D3 single point of the particle with dimer basis set
| 50> $new_job
| 51> %base "17-54_DFT_B"
| 52> ! wB97X-D3 def2-TZVP TIGHTSCF CHELPG PMODEL
| 53>
| 54> %scf
| 55> MaxIter 1000
| 56> end
| 57>
| 58> * xyz 0 1
| 59>   C                    : -8.719428            -0.806688            2.256153
| 60>   O                    : -10.041191           -1.234781            2.494380
| 61>   H                    : -10.144787           -1.521010            3.361301
| 62>   H                    : -8.220031            -0.383521            3.209562
| 63>   H                    : -8.128405            -1.587988            1.732554
| 64>   H                    : -8.726105            0.059084             1.528395
| 65>   C                      -6.565968            -3.021015            -0.286961
| 66>   O                      -7.870317            -2.524230            -0.457635
| 67>   H                      -8.464050            -3.263168            -0.428365
| 68>   H                      -6.375784            -3.424887            0.682798
| 69>   H                      -6.358553            -3.812381            -1.019314
| 70>   H                      -5.921900            -2.184792            -0.507281
| 71> *
| 72>
| 73>                          ****END OF INPUT****
 Total Charge           Charge          ....    0
 Multiplicity           Mult            ....    1
 Number of Electrons    NEL             ....   36
Dispersion correction           -0.001700243
FINAL SINGLE POINT ENERGY      -231.468219300828
Dispersion correction           -0.000267392
FINAL SINGLE POINT ENERGY      -115.730536547650

CARTESIAN COORDINATES (ANGSTROEM)
---------------------------------
  C     -8.719428   -0.806688    2.256153
  O    -10.041191   -1.234781    2.494380
  H    -10.144787   -1.521010    3.361301
  H     -8.220031   -0.383521    3.209562
  H     -8.128405   -1.587988    1.732554
  H     -8.726105    0.059084    1.528395
  C     -6.565968   -3.021015   -0.286961
  O     -7.870317   -2.524230   -0.457635
  H     -8.464050   -3.263168   -0.428365
  H     -6.375784   -3.424887    0.682798
  H     -6.358553   -3.812381   -1.019314
  H     -5.921900   -2.184792   -0.507281

 Multiplicity           Mult            ....    1
 Number of Electrons    NEL             ....   18
 Basis Dimension        Dim             ....  172

ORBITAL ENERGIES
----------------

  NO   OCC          E(Eh)            E(eV)
   0   2.0000     -19.228768      -523.2414
   1   2.0000     -10.307847      -280.4908
   2   2.0000      -1.141326       -31.0571
   3   2.0000      -0.798495       -21.7281
   4   2.0000      -0.616633       -16.7794
   5   2.0000      -0.544923       -14.8281
   6   2.0000      -0.526420       -14.3246
   7   2.0000      -0.437609       -11.9080
   8   2.0000      -0.374365       -10.1870
   9   0.0000       0.094819         2.5802
  10   0.0000       0.125232         3.4077
  11   0.0000       0.155408         4.2289
  12   0.0000       0.175040         4.7631
  13   0.0000       0.199163         5.4195

MULLIKEN ATOMIC CHARGES
-----------------------
   0 C :    0.003932
   1 O :   -0.000127
   2 H :   -0.000059
   3 H :   -0.000252
   4 H :   -0.009198
   5 H :   -0.001873
   6 C :   -0.158367
   7 O :   -0.470353
   8 H :    0.309971
   9 H :    0.104513
  10 H :    0.102125
  11 H :    0.119690
Sum of atomic charges:   -0.0000000

LOEWDIN ATOMIC CHARGES
----------------------
   0 C :   -0.010087
   1 O :   -0.000094
   2 H :   -0.000026
   3 H :   -0.000092
   4 H :   -0.014324
   5 H :   -0.000986
   6 C :   -0.382984
   7 O :   -0.046742
   8 H :    0.160908
   9 H :    0.088690
  10 H :    0.096865
  11 H :    0.108872

  Mayer bond orders larger than 0.1
B(  6-C ,  7-O ) :   0.9856 B(  6-C ,  9-H ) :   0.9739 B(  6-C , 10-H ) :   0.9780
B(  6-C , 11-H ) :   0.9782 B(  7-O ,  8-H ) :   0.9037

Dispersion correction           -0.000224002
FINAL SINGLE POINT ENERGY      -115.736615688250

DIPOLE MOMENT
-------------
                                X             Y             Z
Electronic contribution:     -1.59010       0.75026      -0.14643
Nuclear contribution   :      1.73243      -1.41994       0.21664
                        -----------------------------------------
Total Dipole Moment    :      0.14233      -0.66967       0.07021
                        -----------------------------------------
Magnitude (a.u.)       :      0.68822
Magnitude (Debye)      :      1.74933

Rotational constants in cm-1:     4.345829     0.848471     0.815834
Rotational constants in MHz : 130284.663838 25436.535620 24458.101378

                             ****ORCA TERMINATED NORMALLY****
TOTAL RUN TIME: 0 days 0 hours 1 minutes 11 seconds 82 msec
