                         Program Version 4.1.2  - RELEASE  -
|  1> #Run DFT-D3 single point of the dimer
|  2> ! wB97X-D3 def2-TZVP TIGHTSCF CHELPG PMODEL PAL8
|  3>
|  4> %base "17-157_DFT_AB"
|  5>
|  6> %scf
|  7> MaxIter 1000
|  8> end
|  9>
| 10> * xyz 0 1
| 11>   C                      3.336545             -6.019057            -0.127289
| 12>   O                      2.124200             -6.692143            -0.632479
| 13>   H                      2.245712             -6.788249            -1.551181
| 14>   H                      3.279200             -5.674546            0.871108
| 15>   H                      4.169471             -6.729841            -0.125674
| 16>   H                      3.693860             -5.153305            -0.729483
| 17>   C                      -1.686690            -6.880099            0.001016
| 18>   O                      -0.515030            -7.702419            0.231291
| 19>   H                      0.195622             -7.628837            -0.433345
| 20>   H                      -1.448333            -5.827464            -0.095840
| 21>   H                      -2.181151            -7.114668            -0.914702
| 22>   H                      -2.365929            -7.077965            0.815531
| 23> *
| 24>
| 25> #Run DFT-D3 single point of the molecule with dimer basis set
| 26> $new_job
| 27> %base "17-157_DFT_A"
| 28> ! wB97X-D3 def2-TZVP TIGHTSCF CHELPG PMODEL
| 29>
| 30> %scf
| 31> MaxIter 1000
| 32> end
| 33>
| 34> * xyz 0 1
| 35>   C                      3.336545             -6.019057            -0.127289
| 36>   O                      2.124200             -6.692143            -0.632479
| 37>   H                      2.245712             -6.788249            -1.551181
| 38>   H                      3.279200             -5.674546            0.871108
| 39>   H                      4.169471             -6.729841            -0.125674
| 40>   H                      3.693860             -5.153305            -0.729483
| 41>   C                    : -1.686690            -6.880099            0.001016
| 42>   O                    : -0.515030            -7.702419            0.231291
| 43>   H                    : 0.195622             -7.628837            -0.433345
| 44>   H                    : -1.448333            -5.827464            -0.095840
| 45>   H                    : -2.181151            -7.114668            -0.914702
| 46>   H                    : -2.365929            -7.077965            0.815531
| 47> *
| 48>
| 49> #Run DFT-D3 single point of the particle with dimer basis set
| 50> $new_job
| 51> %base "17-157_DFT_B"
| 52> ! wB97X-D3 def2-TZVP TIGHTSCF CHELPG PMODEL
| 53>
| 54> %scf
| 55> MaxIter 1000
| 56> end
| 57>
| 58> * xyz 0 1
| 59>   C                    : 3.336545             -6.019057            -0.127289
| 60>   O                    : 2.124200             -6.692143            -0.632479
| 61>   H                    : 2.245712             -6.788249            -1.551181
| 62>   H                    : 3.279200             -5.674546            0.871108
| 63>   H                    : 4.169471             -6.729841            -0.125674
| 64>   H                    : 3.693860             -5.153305            -0.729483
| 65>   C                      -1.686690            -6.880099            0.001016
| 66>   O                      -0.515030            -7.702419            0.231291
| 67>   H                      0.195622             -7.628837            -0.433345
| 68>   H                      -1.448333            -5.827464            -0.095840
| 69>   H                      -2.181151            -7.114668            -0.914702
| 70>   H                      -2.365929            -7.077965            0.815531
| 71> *
| 72>
| 73>                          ****END OF INPUT****
 Total Charge           Charge          ....    0
 Multiplicity           Mult            ....    1
 Number of Electrons    NEL             ....   36
Dispersion correction           -0.001400268
FINAL SINGLE POINT ENERGY      -231.466577591539
Dispersion correction           -0.000274012
FINAL SINGLE POINT ENERGY      -115.730250436008

CARTESIAN COORDINATES (ANGSTROEM)
---------------------------------
  C      3.336545   -6.019057   -0.127289
  O      2.124200   -6.692143   -0.632479
  H      2.245712   -6.788249   -1.551181
  H      3.279200   -5.674546    0.871108
  H      4.169471   -6.729841   -0.125674
  H      3.693860   -5.153305   -0.729483
  C     -1.686690   -6.880099    0.001016
  O     -0.515030   -7.702419    0.231291
  H      0.195622   -7.628837   -0.433345
  H     -1.448333   -5.827464   -0.095840
  H     -2.181151   -7.114668   -0.914702
  H     -2.365929   -7.077965    0.815531

 Multiplicity           Mult            ....    1
 Number of Electrons    NEL             ....   18
 Basis Dimension        Dim             ....  172

ORBITAL ENERGIES
----------------

  NO   OCC          E(Eh)            E(eV)
   0   2.0000     -19.227878      -523.2172
   1   2.0000     -10.311620      -280.5935
   2   2.0000      -1.116805       -30.3898
   3   2.0000      -0.803173       -21.8554
   4   2.0000      -0.608724       -16.5642
   5   2.0000      -0.534271       -14.5383
   6   2.0000      -0.525788       -14.3074
   7   2.0000      -0.430900       -11.7254
   8   2.0000      -0.372719       -10.1422
   9   0.0000       0.075184         2.0458
  10   0.0000       0.123493         3.3604
  11   0.0000       0.149617         4.0713
  12   0.0000       0.178169         4.8482
  13   0.0000       0.195898         5.3307

MULLIKEN ATOMIC CHARGES
-----------------------
   0 C :   -0.002157
   1 O :   -0.004254
   2 H :   -0.000793
   3 H :   -0.000030
   4 H :    0.000086
   5 H :    0.000028
   6 C :   -0.153415
   7 O :   -0.497679
   8 H :    0.316051
   9 H :    0.105747
  10 H :    0.107343
  11 H :    0.129074
Sum of atomic charges:   -0.0000000

LOEWDIN ATOMIC CHARGES
----------------------
   0 C :   -0.001286
   1 O :   -0.014267
   2 H :   -0.001964
   3 H :   -0.000103
   4 H :   -0.000027
   5 H :   -0.000024
   6 C :   -0.347919
   7 O :   -0.103721
   8 H :    0.175402
   9 H :    0.094400
  10 H :    0.090007
  11 H :    0.109502

  Mayer bond orders larger than 0.1
B(  6-C ,  7-O ) :   0.9863 B(  6-C ,  9-H ) :   0.9710 B(  6-C , 10-H ) :   0.9777
B(  6-C , 11-H ) :   0.9738 B(  7-O ,  8-H ) :   0.8944

Dispersion correction           -0.000271137
FINAL SINGLE POINT ENERGY      -115.733681253096

DIPOLE MOMENT
-------------
                                X             Y             Z
Electronic contribution:      1.33630      -1.02544       0.41213
Nuclear contribution   :     -1.41056       1.42940      -0.94815
                        -----------------------------------------
Total Dipole Moment    :     -0.07426       0.40395      -0.53601
                        -----------------------------------------
Magnitude (a.u.)       :      0.67528
Magnitude (Debye)      :      1.71642

Rotational constants in cm-1:     4.475696     0.794368     0.762326
Rotational constants in MHz : 134177.983409 23814.555033 22853.965091

                             ****ORCA TERMINATED NORMALLY****
TOTAL RUN TIME: 0 days 0 hours 1 minutes 10 seconds 895 msec
