                         Program Version 4.1.2  - RELEASE  -
|  1> #Run DFT-D3 single point of the dimer
|  2> ! wB97X-D3 def2-TZVP TIGHTSCF CHELPG PMODEL PAL8
|  3>
|  4> %base "4-50_DFT_AB"
|  5>
|  6> %scf
|  7> MaxIter 1000
|  8> end
|  9>
| 10> * xyz 0 1
| 11>   C                      4.599833             1.923888             6.602593
| 12>   O                      3.786116             2.729609             7.484004
| 13>   H                      3.607876             3.440949             6.897519
| 14>   H                      5.455821             2.534420             6.223668
| 15>   H                      5.103900             1.124986             7.097621
| 16>   H                      4.070648             1.512387             5.743250
| 17>   C                      0.867423             5.723621             7.837959
| 18>   O                      1.307199             6.869017             8.474441
| 19>   H                      2.178329             7.084609             8.183428
| 20>   H                      -0.228600            5.779283             7.761657
| 21>   H                      1.350560             5.603302             6.902444
| 22>   H                      1.142569             4.843651             8.449275
| 23> *
| 24>
| 25> #Run DFT-D3 single point of the molecule with dimer basis set
| 26> $new_job
| 27> %base "4-50_DFT_A"
| 28> ! wB97X-D3 def2-TZVP TIGHTSCF CHELPG PMODEL
| 29>
| 30> %scf
| 31> MaxIter 1000
| 32> end
| 33>
| 34> * xyz 0 1
| 35>   C                      4.599833             1.923888             6.602593
| 36>   O                      3.786116             2.729609             7.484004
| 37>   H                      3.607876             3.440949             6.897519
| 38>   H                      5.455821             2.534420             6.223668
| 39>   H                      5.103900             1.124986             7.097621
| 40>   H                      4.070648             1.512387             5.743250
| 41>   C                    : 0.867423             5.723621             7.837959
| 42>   O                    : 1.307199             6.869017             8.474441
| 43>   H                    : 2.178329             7.084609             8.183428
| 44>   H                    : -0.228600            5.779283             7.761657
| 45>   H                    : 1.350560             5.603302             6.902444
| 46>   H                    : 1.142569             4.843651             8.449275
| 47> *
| 48>
| 49> #Run DFT-D3 single point of the particle with dimer basis set
| 50> $new_job
| 51> %base "4-50_DFT_B"
| 52> ! wB97X-D3 def2-TZVP TIGHTSCF CHELPG PMODEL
| 53>
| 54> %scf
| 55> MaxIter 1000
| 56> end
| 57>
| 58> * xyz 0 1
| 59>   C                    : 4.599833             1.923888             6.602593
| 60>   O                    : 3.786116             2.729609             7.484004
| 61>   H                    : 3.607876             3.440949             6.897519
| 62>   H                    : 5.455821             2.534420             6.223668
| 63>   H                    : 5.103900             1.124986             7.097621
| 64>   H                    : 4.070648             1.512387             5.743250
| 65>   C                      0.867423             5.723621             7.837959
| 66>   O                      1.307199             6.869017             8.474441
| 67>   H                      2.178329             7.084609             8.183428
| 68>   H                      -0.228600            5.779283             7.761657
| 69>   H                      1.350560             5.603302             6.902444
| 70>   H                      1.142569             4.843651             8.449275
| 71> *
| 72>
| 73>                          ****END OF INPUT****
 Total Charge           Charge          ....    0
 Multiplicity           Mult            ....    1
 Number of Electrons    NEL             ....   36
Dispersion correction           -0.001002964
FINAL SINGLE POINT ENERGY      -231.465398034416
Dispersion correction           -0.000234917
FINAL SINGLE POINT ENERGY      -115.731367397518

CARTESIAN COORDINATES (ANGSTROEM)
---------------------------------
  C      4.599833    1.923888    6.602593
  O      3.786116    2.729609    7.484004
  H      3.607876    3.440949    6.897519
  H      5.455821    2.534420    6.223668
  H      5.103900    1.124986    7.097621
  H      4.070648    1.512387    5.743250
  C      0.867423    5.723621    7.837959
  O      1.307199    6.869017    8.474441
  H      2.178329    7.084609    8.183428
  H     -0.228600    5.779283    7.761657
  H      1.350560    5.603302    6.902444
  H      1.142569    4.843651    8.449275

 Multiplicity           Mult            ....    1
 Number of Electrons    NEL             ....   18
 Basis Dimension        Dim             ....  172

ORBITAL ENERGIES
----------------

  NO   OCC          E(Eh)            E(eV)
   0   2.0000     -19.224623      -523.1286
   1   2.0000     -10.307878      -280.4916
   2   2.0000      -1.147340       -31.2207
   3   2.0000      -0.796044       -21.6615
   4   2.0000      -0.622098       -16.9282
   5   2.0000      -0.541420       -14.7328
   6   2.0000      -0.533579       -14.5194
   7   2.0000      -0.434002       -11.8098
   8   2.0000      -0.367767       -10.0075
   9   0.0000       0.081010         2.2044
  10   0.0000       0.114326         3.1110
  11   0.0000       0.150455         4.0941
  12   0.0000       0.182836         4.9752
  13   0.0000       0.189974         5.1695

MULLIKEN ATOMIC CHARGES
-----------------------
   0 C :    0.000016
   1 O :    0.000012
   2 H :   -0.000522
   3 H :   -0.000000
   4 H :    0.000003
   5 H :   -0.000006
   6 C :   -0.147830
   7 O :   -0.472698
   8 H :    0.312963
   9 H :    0.114669
  10 H :    0.100720
  11 H :    0.092674
Sum of atomic charges:    0.0000000

LOEWDIN ATOMIC CHARGES
----------------------
   0 C :   -0.000029
   1 O :   -0.000315
   2 H :   -0.000750
   3 H :   -0.000001
   4 H :   -0.000001
   5 H :   -0.000001
   6 C :   -0.400690
   7 O :   -0.050010
   8 H :    0.159217
   9 H :    0.108588
  10 H :    0.087665
  11 H :    0.096327

  Mayer bond orders larger than 0.1
B(  6-C ,  7-O ) :   1.0027 B(  6-C ,  9-H ) :   0.9733 B(  6-C , 10-H ) :   0.9849
B(  6-C , 11-H ) :   0.9770 B(  7-O ,  8-H ) :   0.9018

Dispersion correction           -0.000219240
FINAL SINGLE POINT ENERGY      -115.733917084555

DIPOLE MOMENT
-------------
                                X             Y             Z
Electronic contribution:      0.43344       1.50858       0.77442
Nuclear contribution   :     -0.02312      -1.79646      -1.23302
                        -----------------------------------------
Total Dipole Moment    :      0.41032      -0.28788      -0.45860
                        -----------------------------------------
Magnitude (a.u.)       :      0.67937
Magnitude (Debye)      :      1.72683

Rotational constants in cm-1:     4.307716     0.871987     0.836643
Rotational constants in MHz : 129142.074257 26141.508362 25081.927670

                             ****ORCA TERMINATED NORMALLY****
TOTAL RUN TIME: 0 days 0 hours 1 minutes 28 seconds 778 msec
