                         Program Version 4.1.2  - RELEASE  -
|  1> #Run DFT-D3 single point of the dimer
|  2> ! wB97X-D3 def2-TZVP TIGHTSCF CHELPG PMODEL PAL8
|  3>
|  4> %base "2-62_DFT_AB"
|  5>
|  6> %scf
|  7> MaxIter 1000
|  8> end
|  9>
| 10> * xyz 0 1
| 11>   C                      0.999467             -9.027304            -3.912011
| 12>   O                      2.186414             -9.130388            -3.186209
| 13>   H                      2.083546             -9.885682            -2.567494
| 14>   H                      0.950091             -9.809537            -4.582821
| 15>   H                      0.089306             -9.087572            -3.267712
| 16>   H                      0.963477             -8.154280            -4.573107
| 17>   C                      4.859800             -5.892297            -4.253619
| 18>   O                      4.321151             -4.666534            -4.741819
| 19>   H                      4.981520             -3.996794            -4.816819
| 20>   H                      5.316835             -5.818093            -3.271815
| 21>   H                      4.069458             -6.661182            -4.133229
| 22>   H                      5.564534             -6.266359            -4.983089
| 23> *
| 24>
| 25> #Run DFT-D3 single point of the molecule with dimer basis set
| 26> $new_job
| 27> %base "2-62_DFT_A"
| 28> ! wB97X-D3 def2-TZVP TIGHTSCF CHELPG PMODEL
| 29>
| 30> %scf
| 31> MaxIter 1000
| 32> end
| 33>
| 34> * xyz 0 1
| 35>   C                      0.999467             -9.027304            -3.912011
| 36>   O                      2.186414             -9.130388            -3.186209
| 37>   H                      2.083546             -9.885682            -2.567494
| 38>   H                      0.950091             -9.809537            -4.582821
| 39>   H                      0.089306             -9.087572            -3.267712
| 40>   H                      0.963477             -8.154280            -4.573107
| 41>   C                    : 4.859800             -5.892297            -4.253619
| 42>   O                    : 4.321151             -4.666534            -4.741819
| 43>   H                    : 4.981520             -3.996794            -4.816819
| 44>   H                    : 5.316835             -5.818093            -3.271815
| 45>   H                    : 4.069458             -6.661182            -4.133229
| 46>   H                    : 5.564534             -6.266359            -4.983089
| 47> *
| 48>
| 49> #Run DFT-D3 single point of the particle with dimer basis set
| 50> $new_job
| 51> %base "2-62_DFT_B"
| 52> ! wB97X-D3 def2-TZVP TIGHTSCF CHELPG PMODEL
| 53>
| 54> %scf
| 55> MaxIter 1000
| 56> end
| 57>
| 58> * xyz 0 1
| 59>   C                    : 0.999467             -9.027304            -3.912011
| 60>   O                    : 2.186414             -9.130388            -3.186209
| 61>   H                    : 2.083546             -9.885682            -2.567494
| 62>   H                    : 0.950091             -9.809537            -4.582821
| 63>   H                    : 0.089306             -9.087572            -3.267712
| 64>   H                    : 0.963477             -8.154280            -4.573107
| 65>   C                      4.859800             -5.892297            -4.253619
| 66>   O                      4.321151             -4.666534            -4.741819
| 67>   H                      4.981520             -3.996794            -4.816819
| 68>   H                      5.316835             -5.818093            -3.271815
| 69>   H                      4.069458             -6.661182            -4.133229
| 70>   H                      5.564534             -6.266359            -4.983089
| 71> *
| 72>
| 73>                          ****END OF INPUT****
 Total Charge           Charge          ....    0
 Multiplicity           Mult            ....    1
 Number of Electrons    NEL             ....   36
Dispersion correction           -0.000955102
FINAL SINGLE POINT ENERGY      -231.467131338466
Dispersion correction           -0.000223826
FINAL SINGLE POINT ENERGY      -115.730735390039

CARTESIAN COORDINATES (ANGSTROEM)
---------------------------------
  C      0.999467   -9.027304   -3.912011
  O      2.186414   -9.130388   -3.186209
  H      2.083546   -9.885682   -2.567494
  H      0.950091   -9.809537   -4.582821
  H      0.089306   -9.087572   -3.267712
  H      0.963477   -8.154280   -4.573107
  C      4.859800   -5.892297   -4.253619
  O      4.321151   -4.666534   -4.741819
  H      4.981520   -3.996794   -4.816819
  H      5.316835   -5.818093   -3.271815
  H      4.069458   -6.661182   -4.133229
  H      5.564534   -6.266359   -4.983089

 Multiplicity           Mult            ....    1
 Number of Electrons    NEL             ....   18
 Basis Dimension        Dim             ....  172

ORBITAL ENERGIES
----------------

  NO   OCC          E(Eh)            E(eV)
   0   2.0000     -19.226376      -523.1763
   1   2.0000     -10.313467      -280.6437
   2   2.0000      -1.132773       -30.8243
   3   2.0000      -0.799565       -21.7573
   4   2.0000      -0.609792       -16.5933
   5   2.0000      -0.546178       -14.8623
   6   2.0000      -0.525011       -14.2863
   7   2.0000      -0.426932       -11.6174
   8   2.0000      -0.375009       -10.2045
   9   0.0000       0.085570         2.3285
  10   0.0000       0.119874         3.2619
  11   0.0000       0.149872         4.0782
  12   0.0000       0.166870         4.5408
  13   0.0000       0.182825         4.9749

MULLIKEN ATOMIC CHARGES
-----------------------
   0 C :   -0.000246
   1 O :    0.000001
   2 H :   -0.000011
   3 H :    0.000011
   4 H :    0.000003
   5 H :    0.000166
   6 C :   -0.162558
   7 O :   -0.483416
   8 H :    0.313560
   9 H :    0.104618
  10 H :    0.119849
  11 H :    0.108023
Sum of atomic charges:    0.0000000

LOEWDIN ATOMIC CHARGES
----------------------
   0 C :   -0.000488
   1 O :   -0.000526
   2 H :   -0.000030
   3 H :   -0.000006
   4 H :   -0.000005
   5 H :   -0.000143
   6 C :   -0.374209
   7 O :   -0.079419
   8 H :    0.155290
   9 H :    0.093103
  10 H :    0.112548
  11 H :    0.093885

  Mayer bond orders larger than 0.1
B(  6-C ,  7-O ) :   0.9971 B(  6-C ,  9-H ) :   0.9723 B(  6-C , 10-H ) :   0.9720
B(  6-C , 11-H ) :   0.9819 B(  7-O ,  8-H ) :   0.9000

Dispersion correction           -0.000251369
FINAL SINGLE POINT ENERGY      -115.735094811311

DIPOLE MOMENT
-------------
                                X             Y             Z
Electronic contribution:     -0.76002       1.52980      -0.59801
Nuclear contribution   :      1.40953      -1.61007       0.75504
                        -----------------------------------------
Total Dipole Moment    :      0.64951      -0.08027       0.15702
                        -----------------------------------------
Magnitude (a.u.)       :      0.67302
Magnitude (Debye)      :      1.71069

Rotational constants in cm-1:     4.418474     0.812684     0.789561
Rotational constants in MHz : 132462.518504 24363.645264 23670.454667

                             ****ORCA TERMINATED NORMALLY****
TOTAL RUN TIME: 0 days 0 hours 6 minutes 2 seconds 476 msec
