                         Program Version 4.1.2  - RELEASE  -
|  1> #Run DFT-D3 single point of the dimer
|  2> ! wB97X-D3 def2-TZVP TIGHTSCF CHELPG PMODEL PAL8
|  3>
|  4> %base "5-137_DFT_AB"
|  5>
|  6> %scf
|  7> MaxIter 1000
|  8> end
|  9>
| 10> * xyz 0 1
| 11>   C                      0.074017             4.217301             -5.496732
| 12>   O                      0.563221             5.487481             -5.740181
| 13>   H                      -0.073991            6.071840             -5.294138
| 14>   H                      -0.913316            4.025196             -5.905946
| 15>   H                      0.774878             3.517048             -5.955846
| 16>   H                      -0.044787            3.904843             -4.515804
| 17>   C                      0.320427             6.078679             -9.538372
| 18>   O                      1.321488             5.273423             -8.978225
| 19>   H                      1.319236             5.347693             -8.028852
| 20>   H                      0.314008             5.842951             -10.653554
| 21>   H                      -0.714499            5.846976             -9.193611
| 22>   H                      0.541023             7.152855             -9.355291
| 23> *
| 24>
| 25> #Run DFT-D3 single point of the molecule with dimer basis set
| 26> $new_job
| 27> %base "5-137_DFT_A"
| 28> ! wB97X-D3 def2-TZVP TIGHTSCF CHELPG PMODEL
| 29>
| 30> %scf
| 31> MaxIter 1000
| 32> end
| 33>
| 34> * xyz 0 1
| 35>   C                      0.074017             4.217301             -5.496732
| 36>   O                      0.563221             5.487481             -5.740181
| 37>   H                      -0.073991            6.071840             -5.294138
| 38>   H                      -0.913316            4.025196             -5.905946
| 39>   H                      0.774878             3.517048             -5.955846
| 40>   H                      -0.044787            3.904843             -4.515804
| 41>   C                    : 0.320427             6.078679             -9.538372
| 42>   O                    : 1.321488             5.273423             -8.978225
| 43>   H                    : 1.319236             5.347693             -8.028852
| 44>   H                    : 0.314008             5.842951             -10.653554
| 45>   H                    : -0.714499            5.846976             -9.193611
| 46>   H                    : 0.541023             7.152855             -9.355291
| 47> *
| 48>
| 49> #Run DFT-D3 single point of the particle with dimer basis set
| 50> $new_job
| 51> %base "5-137_DFT_B"
| 52> ! wB97X-D3 def2-TZVP TIGHTSCF CHELPG PMODEL
| 53>
| 54> %scf
| 55> MaxIter 1000
| 56> end
| 57>
| 58> * xyz 0 1
| 59>   C                    : 0.074017             4.217301             -5.496732
| 60>   O                    : 0.563221             5.487481             -5.740181
| 61>   H                    : -0.073991            6.071840             -5.294138
| 62>   H                    : -0.913316            4.025196             -5.905946
| 63>   H                    : 0.774878             3.517048             -5.955846
| 64>   H                    : -0.044787            3.904843             -4.515804
| 65>   C                      0.320427             6.078679             -9.538372
| 66>   O                      1.321488             5.273423             -8.978225
| 67>   H                      1.319236             5.347693             -8.028852
| 68>   H                      0.314008             5.842951             -10.653554
| 69>   H                      -0.714499            5.846976             -9.193611
| 70>   H                      0.541023             7.152855             -9.355291
| 71> *
| 72>
| 73>                          ****END OF INPUT****
 Total Charge           Charge          ....    0
 Multiplicity           Mult            ....    1
 Number of Electrons    NEL             ....   36
Dispersion correction           -0.001707095
FINAL SINGLE POINT ENERGY      -231.472858254670
Dispersion correction           -0.000222440
FINAL SINGLE POINT ENERGY      -115.731378664431

CARTESIAN COORDINATES (ANGSTROEM)
---------------------------------
  C      0.074017    4.217301   -5.496732
  O      0.563221    5.487481   -5.740181
  H     -0.073991    6.071840   -5.294138
  H     -0.913316    4.025196   -5.905946
  H      0.774878    3.517048   -5.955846
  H     -0.044787    3.904843   -4.515804
  C      0.320427    6.078679   -9.538372
  O      1.321488    5.273423   -8.978225
  H      1.319236    5.347693   -8.028852
  H      0.314008    5.842951  -10.653554
  H     -0.714499    5.846976   -9.193611
  H      0.541023    7.152855   -9.355291

 Multiplicity           Mult            ....    1
 Number of Electrons    NEL             ....   18
 Basis Dimension        Dim             ....  172

ORBITAL ENERGIES
----------------

  NO   OCC          E(Eh)            E(eV)
   0   2.0000     -19.230319      -523.2836
   1   2.0000     -10.321409      -280.8598
   2   2.0000      -1.141139       -31.0520
   3   2.0000      -0.790751       -21.5174
   4   2.0000      -0.613830       -16.7032
   5   2.0000      -0.543551       -14.7908
   6   2.0000      -0.521192       -14.1824
   7   2.0000      -0.428304       -11.6548
   8   2.0000      -0.374424       -10.1886
   9   0.0000       0.069909         1.9023
  10   0.0000       0.133112         3.6222
  11   0.0000       0.149748         4.0748
  12   0.0000       0.162422         4.4197
  13   0.0000       0.186090         5.0638

MULLIKEN ATOMIC CHARGES
-----------------------
   0 C :   -0.005252
   1 O :    0.000082
   2 H :    0.000050
   3 H :    0.000437
   4 H :   -0.000195
   5 H :   -0.000290
   6 C :   -0.165402
   7 O :   -0.465545
   8 H :    0.311113
   9 H :    0.120847
  10 H :    0.099002
  11 H :    0.105153
Sum of atomic charges:    0.0000000

LOEWDIN ATOMIC CHARGES
----------------------
   0 C :   -0.003927
   1 O :   -0.005328
   2 H :   -0.000254
   3 H :   -0.000114
   4 H :   -0.000923
   5 H :   -0.000113
   6 C :   -0.404062
   7 O :   -0.059376
   8 H :    0.163225
   9 H :    0.119081
  10 H :    0.094997
  11 H :    0.096796

  Mayer bond orders larger than 0.1
B(  6-C ,  7-O ) :   0.9950 B(  6-C ,  9-H ) :   0.9730 B(  6-C , 10-H ) :   0.9667
B(  6-C , 11-H ) :   0.9775 B(  7-O ,  8-H ) :   0.9058

Dispersion correction           -0.000252624
FINAL SINGLE POINT ENERGY      -115.735447681169

DIPOLE MOMENT
-------------
                                X             Y             Z
Electronic contribution:      1.33834      -1.05450       0.67489
Nuclear contribution   :     -1.72240       1.40107      -0.28957
                        -----------------------------------------
Total Dipole Moment    :     -0.38406       0.34657       0.38532
                        -----------------------------------------
Magnitude (a.u.)       :      0.64505
Magnitude (Debye)      :      1.63958

Rotational constants in cm-1:     4.147725     0.836175     0.807012
Rotational constants in MHz : 124345.678922 25067.909832 24193.613581

                             ****ORCA TERMINATED NORMALLY****
TOTAL RUN TIME: 0 days 0 hours 0 minutes 54 seconds 538 msec
