                         Program Version 4.1.2  - RELEASE  -
|  1> #Run DFT-D3 single point of the dimer
|  2> ! wB97X-D3 def2-TZVP TIGHTSCF CHELPG PMODEL PAL8
|  3>
|  4> %base "19-109_DFT_AB"
|  5>
|  6> %scf
|  7> MaxIter 1000
|  8> end
|  9>
| 10> * xyz 0 1
| 11>   C                      6.485865             6.830318             0.457606
| 12>   O                      6.958456             6.355031             -0.794069
| 13>   H                      7.907226             6.370384             -0.741623
| 14>   H                      6.882538             7.854793             0.749982
| 15>   H                      5.409756             6.912721             0.368214
| 16>   H                      6.865832             6.186334             1.267891
| 17>   C                      5.601645             2.865781             -2.937412
| 18>   O                      6.469794             3.049377             -4.069682
| 19>   H                      7.333711             3.399525             -3.798781
| 20>   H                      5.628178             3.723211             -2.224318
| 21>   H                      4.562722             2.880509             -3.237617
| 22>   H                      5.848391             1.946578             -2.433106
| 23> *
| 24>
| 25> #Run DFT-D3 single point of the molecule with dimer basis set
| 26> $new_job
| 27> %base "19-109_DFT_A"
| 28> ! wB97X-D3 def2-TZVP TIGHTSCF CHELPG PMODEL
| 29>
| 30> %scf
| 31> MaxIter 1000
| 32> end
| 33>
| 34> * xyz 0 1
| 35>   C                      6.485865             6.830318             0.457606
| 36>   O                      6.958456             6.355031             -0.794069
| 37>   H                      7.907226             6.370384             -0.741623
| 38>   H                      6.882538             7.854793             0.749982
| 39>   H                      5.409756             6.912721             0.368214
| 40>   H                      6.865832             6.186334             1.267891
| 41>   C                    : 5.601645             2.865781             -2.937412
| 42>   O                    : 6.469794             3.049377             -4.069682
| 43>   H                    : 7.333711             3.399525             -3.798781
| 44>   H                    : 5.628178             3.723211             -2.224318
| 45>   H                    : 4.562722             2.880509             -3.237617
| 46>   H                    : 5.848391             1.946578             -2.433106
| 47> *
| 48>
| 49> #Run DFT-D3 single point of the particle with dimer basis set
| 50> $new_job
| 51> %base "19-109_DFT_B"
| 52> ! wB97X-D3 def2-TZVP TIGHTSCF CHELPG PMODEL
| 53>
| 54> %scf
| 55> MaxIter 1000
| 56> end
| 57>
| 58> * xyz 0 1
| 59>   C                    : 6.485865             6.830318             0.457606
| 60>   O                    : 6.958456             6.355031             -0.794069
| 61>   H                    : 7.907226             6.370384             -0.741623
| 62>   H                    : 6.882538             7.854793             0.749982
| 63>   H                    : 5.409756             6.912721             0.368214
| 64>   H                    : 6.865832             6.186334             1.267891
| 65>   C                      5.601645             2.865781             -2.937412
| 66>   O                      6.469794             3.049377             -4.069682
| 67>   H                      7.333711             3.399525             -3.798781
| 68>   H                      5.628178             3.723211             -2.224318
| 69>   H                      4.562722             2.880509             -3.237617
| 70>   H                      5.848391             1.946578             -2.433106
| 71> *
| 72>
| 73>                          ****END OF INPUT****
 Total Charge           Charge          ....    0
 Multiplicity           Mult            ....    1
 Number of Electrons    NEL             ....   36
Dispersion correction           -0.000960198
FINAL SINGLE POINT ENERGY      -231.469580971301
Dispersion correction           -0.000238402
FINAL SINGLE POINT ENERGY      -115.734334925314

CARTESIAN COORDINATES (ANGSTROEM)
---------------------------------
  C      6.485865    6.830318    0.457606
  O      6.958456    6.355031   -0.794069
  H      7.907226    6.370384   -0.741623
  H      6.882538    7.854793    0.749982
  H      5.409756    6.912721    0.368214
  H      6.865832    6.186334    1.267891
  C      5.601645    2.865781   -2.937412
  O      6.469794    3.049377   -4.069682
  H      7.333711    3.399525   -3.798781
  H      5.628178    3.723211   -2.224318
  H      4.562722    2.880509   -3.237617
  H      5.848391    1.946578   -2.433106

 Multiplicity           Mult            ....    1
 Number of Electrons    NEL             ....   18
 Basis Dimension        Dim             ....  172

ORBITAL ENERGIES
----------------

  NO   OCC          E(Eh)            E(eV)
   0   2.0000     -19.229074      -523.2497
   1   2.0000     -10.314612      -280.6749
   2   2.0000      -1.123741       -30.5786
   3   2.0000      -0.798108       -21.7176
   4   2.0000      -0.603191       -16.4137
   5   2.0000      -0.547693       -14.9035
   6   2.0000      -0.520280       -14.1575
   7   2.0000      -0.426612       -11.6087
   8   2.0000      -0.375699       -10.2233
   9   0.0000       0.076876         2.0919
  10   0.0000       0.116059         3.1581
  11   0.0000       0.148504         4.0410
  12   0.0000       0.167482         4.5574
  13   0.0000       0.179737         4.8909

MULLIKEN ATOMIC CHARGES
-----------------------
   0 C :    0.000029
   1 O :    0.000066
   2 H :   -0.000011
   3 H :   -0.000010
   4 H :   -0.000052
   5 H :   -0.000019
   6 C :   -0.164218
   7 O :   -0.490997
   8 H :    0.318499
   9 H :    0.102324
  10 H :    0.123537
  11 H :    0.110852
Sum of atomic charges:    0.0000000

LOEWDIN ATOMIC CHARGES
----------------------
   0 C :   -0.000266
   1 O :   -0.000522
   2 H :   -0.000061
   3 H :   -0.000007
   4 H :   -0.000035
   5 H :   -0.000009
   6 C :   -0.367003
   7 O :   -0.103006
   8 H :    0.171928
   9 H :    0.099684
  10 H :    0.106074
  11 H :    0.093222

  Mayer bond orders larger than 0.1
B(  6-C ,  7-O ) :   0.9937 B(  6-C ,  9-H ) :   0.9766 B(  6-C , 10-H ) :   0.9709
B(  6-C , 11-H ) :   0.9772 B(  7-O ,  8-H ) :   0.8944

Dispersion correction           -0.000263335
FINAL SINGLE POINT ENERGY      -115.734134585816

DIPOLE MOMENT
-------------
                                X             Y             Z
Electronic contribution:      1.00110       0.10485      -1.51475
Nuclear contribution   :     -0.82816       0.05627       2.15899
                        -----------------------------------------
Total Dipole Moment    :      0.17295       0.16112       0.64424
                        -----------------------------------------
Magnitude (a.u.)       :      0.68624
Magnitude (Debye)      :      1.74428

Rotational constants in cm-1:     4.356545     0.797546     0.778446
Rotational constants in MHz : 130605.948339 23909.829016 23337.235604

                             ****ORCA TERMINATED NORMALLY****
TOTAL RUN TIME: 0 days 0 hours 0 minutes 47 seconds 852 msec
