                         Program Version 4.1.2  - RELEASE  -
|  1> #Run DFT-D3 single point of the dimer
|  2> ! wB97X-D3 def2-TZVP TIGHTSCF CHELPG PMODEL PAL8
|  3>
|  4> %base "4-94_DFT_AB"
|  5>
|  6> %scf
|  7> MaxIter 1000
|  8> end
|  9>
| 10> * xyz 0 1
| 11>   C                      8.304697             0.773642             -7.879795
| 12>   O                      7.697569             -0.052126            -8.879199
| 13>   H                      7.046114             -0.492704            -8.416586
| 14>   H                      8.728058             0.224718             -7.058519
| 15>   H                      9.138744             1.205424             -8.296531
| 16>   H                      7.608282             1.530593             -7.478363
| 17>   C                      5.421952             4.296284             -8.629715
| 18>   O                      4.177943             4.330859             -7.945690
| 19>   H                      3.759411             3.478553             -7.920667
| 20>   H                      5.294715             3.661968             -9.550154
| 21>   H                      5.762079             5.348298             -8.977451
| 22>   H                      6.121302             3.829732             -7.913418
| 23> *
| 24>
| 25> #Run DFT-D3 single point of the molecule with dimer basis set
| 26> $new_job
| 27> %base "4-94_DFT_A"
| 28> ! wB97X-D3 def2-TZVP TIGHTSCF CHELPG PMODEL
| 29>
| 30> %scf
| 31> MaxIter 1000
| 32> end
| 33>
| 34> * xyz 0 1
| 35>   C                      8.304697             0.773642             -7.879795
| 36>   O                      7.697569             -0.052126            -8.879199
| 37>   H                      7.046114             -0.492704            -8.416586
| 38>   H                      8.728058             0.224718             -7.058519
| 39>   H                      9.138744             1.205424             -8.296531
| 40>   H                      7.608282             1.530593             -7.478363
| 41>   C                    : 5.421952             4.296284             -8.629715
| 42>   O                    : 4.177943             4.330859             -7.945690
| 43>   H                    : 3.759411             3.478553             -7.920667
| 44>   H                    : 5.294715             3.661968             -9.550154
| 45>   H                    : 5.762079             5.348298             -8.977451
| 46>   H                    : 6.121302             3.829732             -7.913418
| 47> *
| 48>
| 49> #Run DFT-D3 single point of the particle with dimer basis set
| 50> $new_job
| 51> %base "4-94_DFT_B"
| 52> ! wB97X-D3 def2-TZVP TIGHTSCF CHELPG PMODEL
| 53>
| 54> %scf
| 55> MaxIter 1000
| 56> end
| 57>
| 58> * xyz 0 1
| 59>   C                    : 8.304697             0.773642             -7.879795
| 60>   O                    : 7.697569             -0.052126            -8.879199
| 61>   H                    : 7.046114             -0.492704            -8.416586
| 62>   H                    : 8.728058             0.224718             -7.058519
| 63>   H                    : 9.138744             1.205424             -8.296531
| 64>   H                    : 7.608282             1.530593             -7.478363
| 65>   C                      5.421952             4.296284             -8.629715
| 66>   O                      4.177943             4.330859             -7.945690
| 67>   H                      3.759411             3.478553             -7.920667
| 68>   H                      5.294715             3.661968             -9.550154
| 69>   H                      5.762079             5.348298             -8.977451
| 70>   H                      6.121302             3.829732             -7.913418
| 71> *
| 72>
| 73>                          ****END OF INPUT****
 Total Charge           Charge          ....    0
 Multiplicity           Mult            ....    1
 Number of Electrons    NEL             ....   36
Dispersion correction           -0.001024127
FINAL SINGLE POINT ENERGY      -231.460471012935
Dispersion correction           -0.000227093
FINAL SINGLE POINT ENERGY      -115.730001862607

CARTESIAN COORDINATES (ANGSTROEM)
---------------------------------
  C      8.304697    0.773642   -7.879795
  O      7.697569   -0.052126   -8.879199
  H      7.046114   -0.492704   -8.416586
  H      8.728058    0.224718   -7.058519
  H      9.138744    1.205424   -8.296531
  H      7.608282    1.530593   -7.478363
  C      5.421952    4.296284   -8.629715
  O      4.177943    4.330859   -7.945690
  H      3.759411    3.478553   -7.920667
  H      5.294715    3.661968   -9.550154
  H      5.762079    5.348298   -8.977451
  H      6.121302    3.829732   -7.913418

 Multiplicity           Mult            ....    1
 Number of Electrons    NEL             ....   18
 Basis Dimension        Dim             ....  172

ORBITAL ENERGIES
----------------

  NO   OCC          E(Eh)            E(eV)
   0   2.0000     -19.223540      -523.0991
   1   2.0000     -10.325975      -280.9841
   2   2.0000      -1.132617       -30.8201
   3   2.0000      -0.788440       -21.4545
   4   2.0000      -0.605158       -16.4672
   5   2.0000      -0.544962       -14.8292
   6   2.0000      -0.522960       -14.2305
   7   2.0000      -0.422160       -11.4876
   8   2.0000      -0.369910       -10.0658
   9   0.0000       0.081501         2.2178
  10   0.0000       0.116906         3.1812
  11   0.0000       0.150118         4.0849
  12   0.0000       0.161576         4.3967
  13   0.0000       0.184505         5.0206

MULLIKEN ATOMIC CHARGES
-----------------------
   0 C :   -0.000180
   1 O :    0.000020
   2 H :   -0.000011
   3 H :   -0.000043
   4 H :    0.000073
   5 H :   -0.000742
   6 C :   -0.154383
   7 O :   -0.487501
   8 H :    0.315797
   9 H :    0.100619
  10 H :    0.117063
  11 H :    0.109288
Sum of atomic charges:    0.0000000

LOEWDIN ATOMIC CHARGES
----------------------
   0 C :   -0.000780
   1 O :   -0.000011
   2 H :   -0.000006
   3 H :   -0.000006
   4 H :   -0.000017
   5 H :   -0.001932
   6 C :   -0.386017
   7 O :   -0.088147
   8 H :    0.159373
   9 H :    0.099665
  10 H :    0.119228
  11 H :    0.098650

  Mayer bond orders larger than 0.1
B(  6-C ,  7-O ) :   0.9824 B(  6-C ,  9-H ) :   0.9806 B(  6-C , 10-H ) :   0.9636
B(  6-C , 11-H ) :   0.9794 B(  7-O ,  8-H ) :   0.8967

Dispersion correction           -0.000242407
FINAL SINGLE POINT ENERGY      -115.729949979191

DIPOLE MOMENT
-------------
                                X             Y             Z
Electronic contribution:     -1.48463       0.20342       0.87801
Nuclear contribution   :      1.70679      -0.77483      -1.14782
                        -----------------------------------------
Total Dipole Moment    :      0.22216      -0.57141      -0.26981
                        -----------------------------------------
Magnitude (a.u.)       :      0.66983
Magnitude (Debye)      :      1.70256

Rotational constants in cm-1:     4.057207     0.822319     0.795682
Rotational constants in MHz : 121632.009870 24652.502861 23853.951630

                             ****ORCA TERMINATED NORMALLY****
TOTAL RUN TIME: 0 days 0 hours 1 minutes 32 seconds 63 msec
