                         Program Version 4.1.2  - RELEASE  -
|  1> #Run DFT-D3 single point of the dimer
|  2> ! wB97X-D3 def2-TZVP TIGHTSCF CHELPG PMODEL PAL8
|  3>
|  4> %base "12-68_DFT_AB"
|  5>
|  6> %scf
|  7> MaxIter 1000
|  8> end
|  9>
| 10> * xyz 0 1
| 11>   C                      6.939438             8.381128             7.470866
| 12>   O                      6.725867             7.125149             6.925908
| 13>   H                      6.458362             6.563001             7.707976
| 14>   H                      6.795791             9.090185             6.659182
| 15>   H                      6.342889             8.682943             8.259780
| 16>   H                      7.982865             8.432314             7.760599
| 17>   C                      9.582655             6.879623             4.936623
| 18>   O                      10.255227            6.090616             5.863854
| 19>   H                      10.330314            6.486114             6.755497
| 20>   H                      10.083130            7.853261             4.736883
| 21>   H                      9.466581             6.489050             3.892743
| 22>   H                      8.555110             7.126426             5.235489
| 23> *
| 24>
| 25> #Run DFT-D3 single point of the molecule with dimer basis set
| 26> $new_job
| 27> %base "12-68_DFT_A"
| 28> ! wB97X-D3 def2-TZVP TIGHTSCF CHELPG PMODEL
| 29>
| 30> %scf
| 31> MaxIter 1000
| 32> end
| 33>
| 34> * xyz 0 1
| 35>   C                      6.939438             8.381128             7.470866
| 36>   O                      6.725867             7.125149             6.925908
| 37>   H                      6.458362             6.563001             7.707976
| 38>   H                      6.795791             9.090185             6.659182
| 39>   H                      6.342889             8.682943             8.259780
| 40>   H                      7.982865             8.432314             7.760599
| 41>   C                    : 9.582655             6.879623             4.936623
| 42>   O                    : 10.255227            6.090616             5.863854
| 43>   H                    : 10.330314            6.486114             6.755497
| 44>   H                    : 10.083130            7.853261             4.736883
| 45>   H                    : 9.466581             6.489050             3.892743
| 46>   H                    : 8.555110             7.126426             5.235489
| 47> *
| 48>
| 49> #Run DFT-D3 single point of the particle with dimer basis set
| 50> $new_job
| 51> %base "12-68_DFT_B"
| 52> ! wB97X-D3 def2-TZVP TIGHTSCF CHELPG PMODEL
| 53>
| 54> %scf
| 55> MaxIter 1000
| 56> end
| 57>
| 58> * xyz 0 1
| 59>   C                    : 6.939438             8.381128             7.470866
| 60>   O                    : 6.725867             7.125149             6.925908
| 61>   H                    : 6.458362             6.563001             7.707976
| 62>   H                    : 6.795791             9.090185             6.659182
| 63>   H                    : 6.342889             8.682943             8.259780
| 64>   H                    : 7.982865             8.432314             7.760599
| 65>   C                      9.582655             6.879623             4.936623
| 66>   O                      10.255227            6.090616             5.863854
| 67>   H                      10.330314            6.486114             6.755497
| 68>   H                      10.083130            7.853261             4.736883
| 69>   H                      9.466581             6.489050             3.892743
| 70>   H                      8.555110             7.126426             5.235489
| 71> *
| 72>
| 73>                          ****END OF INPUT****
 Total Charge           Charge          ....    0
 Multiplicity           Mult            ....    1
 Number of Electrons    NEL             ....   36
Dispersion correction           -0.001856251
FINAL SINGLE POINT ENERGY      -231.461815796161
Dispersion correction           -0.000215229
FINAL SINGLE POINT ENERGY      -115.729837573186

CARTESIAN COORDINATES (ANGSTROEM)
---------------------------------
  C      6.939438    8.381128    7.470866
  O      6.725867    7.125149    6.925908
  H      6.458362    6.563001    7.707976
  H      6.795791    9.090185    6.659182
  H      6.342889    8.682943    8.259780
  H      7.982865    8.432314    7.760599
  C      9.582655    6.879623    4.936623
  O     10.255227    6.090616    5.863854
  H     10.330314    6.486114    6.755497
  H     10.083130    7.853261    4.736883
  H      9.466581    6.489050    3.892743
  H      8.555110    7.126426    5.235489

 Multiplicity           Mult            ....    1
 Number of Electrons    NEL             ....   18
 Basis Dimension        Dim             ....  172

ORBITAL ENERGIES
----------------

  NO   OCC          E(Eh)            E(eV)
   0   2.0000     -19.233963      -523.3827
   1   2.0000     -10.317135      -280.7435
   2   2.0000      -1.137808       -30.9613
   3   2.0000      -0.794872       -21.6296
   4   2.0000      -0.617969       -16.8158
   5   2.0000      -0.538650       -14.6574
   6   2.0000      -0.529509       -14.4087
   7   2.0000      -0.419438       -11.4135
   8   2.0000      -0.372505       -10.1364
   9   0.0000       0.075437         2.0528
  10   0.0000       0.123783         3.3683
  11   0.0000       0.145915         3.9706
  12   0.0000       0.163550         4.4504
  13   0.0000       0.188214         5.1216

MULLIKEN ATOMIC CHARGES
-----------------------
   0 C :    0.001511
   1 O :    0.001188
   2 H :    0.000014
   3 H :   -0.000786
   4 H :    0.000106
   5 H :   -0.000109
   6 C :   -0.149499
   7 O :   -0.481772
   8 H :    0.326165
   9 H :    0.095957
  10 H :    0.122521
  11 H :    0.084704
Sum of atomic charges:    0.0000000

LOEWDIN ATOMIC CHARGES
----------------------
   0 C :   -0.004913
   1 O :   -0.005515
   2 H :   -0.000250
   3 H :   -0.000728
   4 H :   -0.000060
   5 H :   -0.000781
   6 C :   -0.412526
   7 O :   -0.066088
   8 H :    0.183897
   9 H :    0.095685
  10 H :    0.115020
  11 H :    0.096260

  Mayer bond orders larger than 0.1
B(  6-C ,  7-O ) :   1.0039 B(  6-C ,  9-H ) :   0.9815 B(  6-C , 10-H ) :   0.9690
B(  6-C , 11-H ) :   0.9767 B(  7-O ,  8-H ) :   0.8848

Dispersion correction           -0.000271344
FINAL SINGLE POINT ENERGY      -115.730658529112

DIPOLE MOMENT
-------------
                                X             Y             Z
Electronic contribution:      0.95615      -1.26801       1.22694
Nuclear contribution   :     -1.16960       1.83024      -1.01408
                        -----------------------------------------
Total Dipole Moment    :     -0.21345       0.56224       0.21286
                        -----------------------------------------
Magnitude (a.u.)       :      0.63795
Magnitude (Debye)      :      1.62154

Rotational constants in cm-1:     4.482825     0.821631     0.797285
Rotational constants in MHz : 134391.703236 24631.876536 23902.007882

                             ****ORCA TERMINATED NORMALLY****
TOTAL RUN TIME: 0 days 0 hours 1 minutes 3 seconds 332 msec
