                         Program Version 4.1.2  - RELEASE  -
|  1> #Run DFT-D3 single point of the dimer
|  2> ! wB97X-D3 def2-TZVP TIGHTSCF CHELPG PMODEL PAL8
|  3>
|  4> %base "1-160_DFT_AB"
|  5>
|  6> %scf
|  7> MaxIter 1000
|  8> end
|  9>
| 10> * xyz 0 1
| 11>   C                      8.916772             5.652893             5.606210
| 12>   O                      9.738335             6.552833             4.876664
| 13>   H                      10.631280            6.597577             5.261094
| 14>   H                      8.636874             5.976055             6.645396
| 15>   H                      7.890918             5.599432             5.142243
| 16>   H                      9.367213             4.647505             5.684970
| 17>   C                      6.435517             5.502492             3.240759
| 18>   O                      7.653140             4.836100             3.103673
| 19>   H                      7.754679             4.113774             3.731142
| 20>   H                      6.451900             6.412907             2.643708
| 21>   H                      5.674505             4.828367             2.799575
| 22>   H                      6.227441             5.836066             4.251871
| 23> *
| 24>
| 25> #Run DFT-D3 single point of the molecule with dimer basis set
| 26> $new_job
| 27> %base "1-160_DFT_A"
| 28> ! wB97X-D3 def2-TZVP TIGHTSCF CHELPG PMODEL
| 29>
| 30> %scf
| 31> MaxIter 1000
| 32> end
| 33>
| 34> * xyz 0 1
| 35>   C                      8.916772             5.652893             5.606210
| 36>   O                      9.738335             6.552833             4.876664
| 37>   H                      10.631280            6.597577             5.261094
| 38>   H                      8.636874             5.976055             6.645396
| 39>   H                      7.890918             5.599432             5.142243
| 40>   H                      9.367213             4.647505             5.684970
| 41>   C                    : 6.435517             5.502492             3.240759
| 42>   O                    : 7.653140             4.836100             3.103673
| 43>   H                    : 7.754679             4.113774             3.731142
| 44>   H                    : 6.451900             6.412907             2.643708
| 45>   H                    : 5.674505             4.828367             2.799575
| 46>   H                    : 6.227441             5.836066             4.251871
| 47> *
| 48>
| 49> #Run DFT-D3 single point of the particle with dimer basis set
| 50> $new_job
| 51> %base "1-160_DFT_B"
| 52> ! wB97X-D3 def2-TZVP TIGHTSCF CHELPG PMODEL
| 53>
| 54> %scf
| 55> MaxIter 1000
| 56> end
| 57>
| 58> * xyz 0 1
| 59>   C                    : 8.916772             5.652893             5.606210
| 60>   O                    : 9.738335             6.552833             4.876664
| 61>   H                    : 10.631280            6.597577             5.261094
| 62>   H                    : 8.636874             5.976055             6.645396
| 63>   H                    : 7.890918             5.599432             5.142243
| 64>   H                    : 9.367213             4.647505             5.684970
| 65>   C                      6.435517             5.502492             3.240759
| 66>   O                      7.653140             4.836100             3.103673
| 67>   H                      7.754679             4.113774             3.731142
| 68>   H                      6.451900             6.412907             2.643708
| 69>   H                      5.674505             4.828367             2.799575
| 70>   H                      6.227441             5.836066             4.251871
| 71> *
| 72>
| 73>                          ****END OF INPUT****
 Total Charge           Charge          ....    0
 Multiplicity           Mult            ....    1
 Number of Electrons    NEL             ....   36
Dispersion correction           -0.002049788
FINAL SINGLE POINT ENERGY      -231.461500245542
Dispersion correction           -0.000275878
FINAL SINGLE POINT ENERGY      -115.733717949224

CARTESIAN COORDINATES (ANGSTROEM)
---------------------------------
  C      8.916772    5.652893    5.606210
  O      9.738335    6.552833    4.876664
  H     10.631280    6.597577    5.261094
  H      8.636874    5.976055    6.645396
  H      7.890918    5.599432    5.142243
  H      9.367213    4.647505    5.684970
  C      6.435517    5.502492    3.240759
  O      7.653140    4.836100    3.103673
  H      7.754679    4.113774    3.731142
  H      6.451900    6.412907    2.643708
  H      5.674505    4.828367    2.799575
  H      6.227441    5.836066    4.251871

 Multiplicity           Mult            ....    1
 Number of Electrons    NEL             ....   18
 Basis Dimension        Dim             ....  172

ORBITAL ENERGIES
----------------

  NO   OCC          E(Eh)            E(eV)
   0   2.0000     -19.227845      -523.2163
   1   2.0000     -10.311550      -280.5915
   2   2.0000      -1.138770       -30.9875
   3   2.0000      -0.796694       -21.6791
   4   2.0000      -0.611109       -16.6291
   5   2.0000      -0.551089       -14.9959
   6   2.0000      -0.529980       -14.4215
   7   2.0000      -0.423600       -11.5267
   8   2.0000      -0.372229       -10.1289
   9   0.0000       0.085001         2.3130
  10   0.0000       0.135812         3.6956
  11   0.0000       0.149015         4.0549
  12   0.0000       0.171207         4.6588
  13   0.0000       0.199573         5.4307

MULLIKEN ATOMIC CHARGES
-----------------------
   0 C :   -0.013301
   1 O :    0.002835
   2 H :    0.000161
   3 H :   -0.001018
   4 H :   -0.008110
   5 H :    0.001067
   6 C :   -0.147904
   7 O :   -0.471828
   8 H :    0.320335
   9 H :    0.116257
  10 H :    0.105186
  11 H :    0.096321
Sum of atomic charges:   -0.0000000

LOEWDIN ATOMIC CHARGES
----------------------
   0 C :   -0.027491
   1 O :   -0.002669
   2 H :   -0.000194
   3 H :   -0.000323
   4 H :   -0.022978
   5 H :   -0.001942
   6 C :   -0.387676
   7 O :   -0.038221
   8 H :    0.174477
   9 H :    0.108691
  10 H :    0.101036
  11 H :    0.097291

  Mayer bond orders larger than 0.1
B(  6-C ,  7-O ) :   0.9892 B(  6-C ,  9-H ) :   0.9742 B(  6-C , 10-H ) :   0.9857
B(  6-C , 11-H ) :   0.9743 B(  7-O ,  8-H ) :   0.8921

Dispersion correction           -0.000236704
FINAL SINGLE POINT ENERGY      -115.735052683843

DIPOLE MOMENT
-------------
                                X             Y             Z
Electronic contribution:      1.55980      -0.75414      -0.19626
Nuclear contribution   :     -1.97217       0.57256       0.63557
                        -----------------------------------------
Total Dipole Moment    :     -0.41236      -0.18159       0.43931
                        -----------------------------------------
Magnitude (a.u.)       :      0.62929
Magnitude (Debye)      :      1.59954

Rotational constants in cm-1:     4.313516     0.842942     0.824419
Rotational constants in MHz : 129315.961451 25270.756155 24715.451752

                             ****ORCA TERMINATED NORMALLY****
TOTAL RUN TIME: 0 days 0 hours 6 minutes 15 seconds 843 msec
