                         Program Version 4.1.2  - RELEASE  -
|  1> #Run DFT-D3 single point of the dimer
|  2> ! wB97X-D3 def2-TZVP TIGHTSCF CHELPG PMODEL PAL8
|  3>
|  4> %base "16-195_DFT_AB"
|  5>
|  6> %scf
|  7> MaxIter 1000
|  8> end
|  9>
| 10> * xyz 0 1
| 11>   C                      3.675314             2.859885             -2.259759
| 12>   O                      3.147559             2.297002             -1.086544
| 13>   H                      2.592789             1.565047             -1.372936
| 14>   H                      3.332748             2.311881             -3.117795
| 15>   H                      3.619255             3.924733             -2.302916
| 16>   H                      4.821254             2.748103             -2.310548
| 17>   C                      4.174423             2.521291             2.269891
| 18>   O                      3.727706             3.617166             1.427619
| 19>   H                      3.640388             3.247452             0.542139
| 20>   H                      3.348106             1.928534             2.618243
| 21>   H                      4.747251             1.855609             1.722985
| 22>   H                      4.757139             2.821299             3.072047
| 23> *
| 24>
| 25> #Run DFT-D3 single point of the molecule with dimer basis set
| 26> $new_job
| 27> %base "16-195_DFT_A"
| 28> ! wB97X-D3 def2-TZVP TIGHTSCF CHELPG PMODEL
| 29>
| 30> %scf
| 31> MaxIter 1000
| 32> end
| 33>
| 34> * xyz 0 1
| 35>   C                      3.675314             2.859885             -2.259759
| 36>   O                      3.147559             2.297002             -1.086544
| 37>   H                      2.592789             1.565047             -1.372936
| 38>   H                      3.332748             2.311881             -3.117795
| 39>   H                      3.619255             3.924733             -2.302916
| 40>   H                      4.821254             2.748103             -2.310548
| 41>   C                    : 4.174423             2.521291             2.269891
| 42>   O                    : 3.727706             3.617166             1.427619
| 43>   H                    : 3.640388             3.247452             0.542139
| 44>   H                    : 3.348106             1.928534             2.618243
| 45>   H                    : 4.747251             1.855609             1.722985
| 46>   H                    : 4.757139             2.821299             3.072047
| 47> *
| 48>
| 49> #Run DFT-D3 single point of the particle with dimer basis set
| 50> $new_job
| 51> %base "16-195_DFT_B"
| 52> ! wB97X-D3 def2-TZVP TIGHTSCF CHELPG PMODEL
| 53>
| 54> %scf
| 55> MaxIter 1000
| 56> end
| 57>
| 58> * xyz 0 1
| 59>   C                    : 3.675314             2.859885             -2.259759
| 60>   O                    : 3.147559             2.297002             -1.086544
| 61>   H                    : 2.592789             1.565047             -1.372936
| 62>   H                    : 3.332748             2.311881             -3.117795
| 63>   H                    : 3.619255             3.924733             -2.302916
| 64>   H                    : 4.821254             2.748103             -2.310548
| 65>   C                      4.174423             2.521291             2.269891
| 66>   O                      3.727706             3.617166             1.427619
| 67>   H                      3.640388             3.247452             0.542139
| 68>   H                      3.348106             1.928534             2.618243
| 69>   H                      4.747251             1.855609             1.722985
| 70>   H                      4.757139             2.821299             3.072047
| 71> *
| 72>
| 73>                          ****END OF INPUT****
 Total Charge           Charge          ....    0
 Multiplicity           Mult            ....    1
 Number of Electrons    NEL             ....   36
Dispersion correction           -0.001716540
FINAL SINGLE POINT ENERGY      -231.465994430230
Dispersion correction           -0.000247097
FINAL SINGLE POINT ENERGY      -115.728854377957

CARTESIAN COORDINATES (ANGSTROEM)
---------------------------------
  C      3.675314    2.859885   -2.259759
  O      3.147559    2.297002   -1.086544
  H      2.592789    1.565047   -1.372936
  H      3.332748    2.311881   -3.117795
  H      3.619255    3.924733   -2.302916
  H      4.821254    2.748103   -2.310548
  C      4.174423    2.521291    2.269891
  O      3.727706    3.617166    1.427619
  H      3.640388    3.247452    0.542139
  H      3.348106    1.928534    2.618243
  H      4.747251    1.855609    1.722985
  H      4.757139    2.821299    3.072047

 Multiplicity           Mult            ....    1
 Number of Electrons    NEL             ....   18
 Basis Dimension        Dim             ....  172

ORBITAL ENERGIES
----------------

  NO   OCC          E(Eh)            E(eV)
   0   2.0000     -19.230330      -523.2839
   1   2.0000     -10.301670      -280.3227
   2   2.0000      -1.124723       -30.6053
   3   2.0000      -0.808960       -22.0129
   4   2.0000      -0.607360       -16.5271
   5   2.0000      -0.542515       -14.7626
   6   2.0000      -0.529521       -14.4090
   7   2.0000      -0.441487       -12.0135
   8   2.0000      -0.375600       -10.2206
   9   0.0000       0.069326         1.8865
  10   0.0000       0.133187         3.6242
  11   0.0000       0.153334         4.1724
  12   0.0000       0.161633         4.3983
  13   0.0000       0.191542         5.2121

MULLIKEN ATOMIC CHARGES
-----------------------
   0 C :   -0.003163
   1 O :   -0.004232
   2 H :   -0.000214
   3 H :    0.000023
   4 H :    0.000331
   5 H :    0.000024
   6 C :   -0.169374
   7 O :   -0.479791
   8 H :    0.314895
   9 H :    0.105090
  10 H :    0.108961
  11 H :    0.127449
Sum of atomic charges:    0.0000000

LOEWDIN ATOMIC CHARGES
----------------------
   0 C :   -0.004671
   1 O :   -0.019785
   2 H :   -0.000926
   3 H :   -0.000104
   4 H :   -0.000328
   5 H :   -0.000214
   6 C :   -0.337933
   7 O :   -0.092394
   8 H :    0.178312
   9 H :    0.096362
  10 H :    0.086545
  11 H :    0.095135

  Mayer bond orders larger than 0.1
B(  6-C ,  7-O ) :   0.9882 B(  6-C ,  9-H ) :   0.9787 B(  6-C , 10-H ) :   0.9850
B(  6-C , 11-H ) :   0.9751 B(  7-O ,  8-H ) :   0.9095

Dispersion correction           -0.000236591
FINAL SINGLE POINT ENERGY      -115.729643138167

DIPOLE MOMENT
-------------
                                X             Y             Z
Electronic contribution:     -0.50351       1.52109      -0.85058
Nuclear contribution   :      0.66587      -2.23569       0.65058
                        -----------------------------------------
Total Dipole Moment    :      0.16236      -0.71461      -0.20000
                        -----------------------------------------
Magnitude (a.u.)       :      0.75962
Magnitude (Debye)      :      1.93080

Rotational constants in cm-1:     4.614618     0.801649     0.774581
Rotational constants in MHz : 138342.762646 24032.829797 23221.345010

                             ****ORCA TERMINATED NORMALLY****
TOTAL RUN TIME: 0 days 0 hours 1 minutes 5 seconds 435 msec
