                         Program Version 4.1.2  - RELEASE  -
|  1> #Run DFT-D3 single point of the dimer
|  2> ! wB97X-D3 def2-TZVP TIGHTSCF CHELPG PMODEL PAL8
|  3>
|  4> %base "21-28_DFT_AB"
|  5>
|  6> %scf
|  7> MaxIter 1000
|  8> end
|  9>
| 10> * xyz 0 1
| 11>   C                      2.453454             1.166860             -5.874115
| 12>   O                      3.686145             1.240109             -5.184784
| 13>   H                      3.920853             2.166736             -5.242162
| 14>   H                      1.624176             1.779049             -5.362332
| 15>   H                      2.542419             1.779453             -6.767790
| 16>   H                      2.112095             0.179773             -6.170195
| 17>   C                      2.873291             -2.529165            -7.643603
| 18>   O                      3.707500             -3.600925            -7.742358
| 19>   H                      4.663623             -3.302338            -7.745049
| 20>   H                      1.923567             -2.610872            -8.190210
| 21>   H                      2.564570             -2.405424            -6.552309
| 22>   H                      3.394196             -1.553683            -7.938926
| 23> *
| 24>
| 25> #Run DFT-D3 single point of the molecule with dimer basis set
| 26> $new_job
| 27> %base "21-28_DFT_A"
| 28> ! wB97X-D3 def2-TZVP TIGHTSCF CHELPG PMODEL
| 29>
| 30> %scf
| 31> MaxIter 1000
| 32> end
| 33>
| 34> * xyz 0 1
| 35>   C                      2.453454             1.166860             -5.874115
| 36>   O                      3.686145             1.240109             -5.184784
| 37>   H                      3.920853             2.166736             -5.242162
| 38>   H                      1.624176             1.779049             -5.362332
| 39>   H                      2.542419             1.779453             -6.767790
| 40>   H                      2.112095             0.179773             -6.170195
| 41>   C                    : 2.873291             -2.529165            -7.643603
| 42>   O                    : 3.707500             -3.600925            -7.742358
| 43>   H                    : 4.663623             -3.302338            -7.745049
| 44>   H                    : 1.923567             -2.610872            -8.190210
| 45>   H                    : 2.564570             -2.405424            -6.552309
| 46>   H                    : 3.394196             -1.553683            -7.938926
| 47> *
| 48>
| 49> #Run DFT-D3 single point of the particle with dimer basis set
| 50> $new_job
| 51> %base "21-28_DFT_B"
| 52> ! wB97X-D3 def2-TZVP TIGHTSCF CHELPG PMODEL
| 53>
| 54> %scf
| 55> MaxIter 1000
| 56> end
| 57>
| 58> * xyz 0 1
| 59>   C                    : 2.453454             1.166860             -5.874115
| 60>   O                    : 3.686145             1.240109             -5.184784
| 61>   H                    : 3.920853             2.166736             -5.242162
| 62>   H                    : 1.624176             1.779049             -5.362332
| 63>   H                    : 2.542419             1.779453             -6.767790
| 64>   H                    : 2.112095             0.179773             -6.170195
| 65>   C                      2.873291             -2.529165            -7.643603
| 66>   O                      3.707500             -3.600925            -7.742358
| 67>   H                      4.663623             -3.302338            -7.745049
| 68>   H                      1.923567             -2.610872            -8.190210
| 69>   H                      2.564570             -2.405424            -6.552309
| 70>   H                      3.394196             -1.553683            -7.938926
| 71> *
| 72>
| 73>                          ****END OF INPUT****
 Total Charge           Charge          ....    0
 Multiplicity           Mult            ....    1
 Number of Electrons    NEL             ....   36
Dispersion correction           -0.001306848
FINAL SINGLE POINT ENERGY      -231.457821717150
Dispersion correction           -0.000230652
FINAL SINGLE POINT ENERGY      -115.728357408014

CARTESIAN COORDINATES (ANGSTROEM)
---------------------------------
  C      2.453454    1.166860   -5.874115
  O      3.686145    1.240109   -5.184784
  H      3.920853    2.166736   -5.242162
  H      1.624176    1.779049   -5.362332
  H      2.542419    1.779453   -6.767790
  H      2.112095    0.179773   -6.170195
  C      2.873291   -2.529165   -7.643603
  O      3.707500   -3.600925   -7.742358
  H      4.663623   -3.302338   -7.745049
  H      1.923567   -2.610872   -8.190210
  H      2.564570   -2.405424   -6.552309
  H      3.394196   -1.553683   -7.938926

 Multiplicity           Mult            ....    1
 Number of Electrons    NEL             ....   18
 Basis Dimension        Dim             ....  172

ORBITAL ENERGIES
----------------

  NO   OCC          E(Eh)            E(eV)
   0   2.0000     -19.234736      -523.4038
   1   2.0000     -10.319111      -280.7973
   2   2.0000      -1.146481       -31.1973
   3   2.0000      -0.783786       -21.3279
   4   2.0000      -0.615279       -16.7426
   5   2.0000      -0.540669       -14.7123
   6   2.0000      -0.534389       -14.5415
   7   2.0000      -0.424498       -11.5512
   8   2.0000      -0.364831        -9.9276
   9   0.0000       0.082870         2.2550
  10   0.0000       0.107213         2.9174
  11   0.0000       0.145439         3.9576
  12   0.0000       0.172327         4.6893
  13   0.0000       0.179218         4.8768

MULLIKEN ATOMIC CHARGES
-----------------------
   0 C :    0.001160
   1 O :    0.000159
   2 H :    0.000022
   3 H :   -0.000124
   4 H :   -0.000145
   5 H :   -0.003637
   6 C :   -0.158589
   7 O :   -0.461476
   8 H :    0.327531
   9 H :    0.115859
  10 H :    0.088128
  11 H :    0.091114
Sum of atomic charges:   -0.0000000

LOEWDIN ATOMIC CHARGES
----------------------
   0 C :   -0.002304
   1 O :   -0.000014
   2 H :   -0.000003
   3 H :   -0.000015
   4 H :   -0.000093
   5 H :   -0.003717
   6 C :   -0.441814
   7 O :   -0.056096
   8 H :    0.200643
   9 H :    0.103061
  10 H :    0.099218
  11 H :    0.101134

  Mayer bond orders larger than 0.1
B(  6-C ,  7-O ) :   1.0223 B(  6-C ,  9-H ) :   0.9646 B(  6-C , 10-H ) :   0.9776
B(  6-C , 11-H ) :   0.9848 B(  7-O ,  8-H ) :   0.8850

Dispersion correction           -0.000247460
FINAL SINGLE POINT ENERGY      -115.728475579312

DIPOLE MOMENT
-------------
                                X             Y             Z
Electronic contribution:      1.01707      -1.64298      -0.29972
Nuclear contribution   :     -0.69402       2.20058       0.30556
                        -----------------------------------------
Total Dipole Moment    :      0.32305       0.55760       0.00583
                        -----------------------------------------
Magnitude (a.u.)       :      0.64445
Magnitude (Debye)      :      1.63806

Rotational constants in cm-1:     4.114022     0.868760     0.830166
Rotational constants in MHz : 123335.289110 26044.782924 24887.738778

                             ****ORCA TERMINATED NORMALLY****
TOTAL RUN TIME: 0 days 0 hours 1 minutes 1 seconds 162 msec
