                         Program Version 4.1.2  - RELEASE  -
|  1> #Run DFT-D3 single point of the dimer
|  2> ! wB97X-D3 def2-TZVP TIGHTSCF CHELPG PMODEL PAL8
|  3>
|  4> %base "19-112_DFT_AB"
|  5>
|  6> %scf
|  7> MaxIter 1000
|  8> end
|  9>
| 10> * xyz 0 1
| 11>   C                      6.485865             6.830318             0.457606
| 12>   O                      6.958456             6.355031             -0.794069
| 13>   H                      7.907226             6.370384             -0.741623
| 14>   H                      6.882538             7.854793             0.749982
| 15>   H                      5.409756             6.912721             0.368214
| 16>   H                      6.865832             6.186334             1.267891
| 17>   C                      6.919599             9.058692             -3.158275
| 18>   O                      8.019417             9.760549             -3.610489
| 19>   H                      7.734549             10.559008            -4.039100
| 20>   H                      7.207439             8.083868             -2.804231
| 21>   H                      6.309930             9.559886             -2.331122
| 22>   H                      6.251835             8.980277             -4.078262
| 23> *
| 24>
| 25> #Run DFT-D3 single point of the molecule with dimer basis set
| 26> $new_job
| 27> %base "19-112_DFT_A"
| 28> ! wB97X-D3 def2-TZVP TIGHTSCF CHELPG PMODEL
| 29>
| 30> %scf
| 31> MaxIter 1000
| 32> end
| 33>
| 34> * xyz 0 1
| 35>   C                      6.485865             6.830318             0.457606
| 36>   O                      6.958456             6.355031             -0.794069
| 37>   H                      7.907226             6.370384             -0.741623
| 38>   H                      6.882538             7.854793             0.749982
| 39>   H                      5.409756             6.912721             0.368214
| 40>   H                      6.865832             6.186334             1.267891
| 41>   C                    : 6.919599             9.058692             -3.158275
| 42>   O                    : 8.019417             9.760549             -3.610489
| 43>   H                    : 7.734549             10.559008            -4.039100
| 44>   H                    : 7.207439             8.083868             -2.804231
| 45>   H                    : 6.309930             9.559886             -2.331122
| 46>   H                    : 6.251835             8.980277             -4.078262
| 47> *
| 48>
| 49> #Run DFT-D3 single point of the particle with dimer basis set
| 50> $new_job
| 51> %base "19-112_DFT_B"
| 52> ! wB97X-D3 def2-TZVP TIGHTSCF CHELPG PMODEL
| 53>
| 54> %scf
| 55> MaxIter 1000
| 56> end
| 57>
| 58> * xyz 0 1
| 59>   C                    : 6.485865             6.830318             0.457606
| 60>   O                    : 6.958456             6.355031             -0.794069
| 61>   H                    : 7.907226             6.370384             -0.741623
| 62>   H                    : 6.882538             7.854793             0.749982
| 63>   H                    : 5.409756             6.912721             0.368214
| 64>   H                    : 6.865832             6.186334             1.267891
| 65>   C                      6.919599             9.058692             -3.158275
| 66>   O                      8.019417             9.760549             -3.610489
| 67>   H                      7.734549             10.559008            -4.039100
| 68>   H                      7.207439             8.083868             -2.804231
| 69>   H                      6.309930             9.559886             -2.331122
| 70>   H                      6.251835             8.980277             -4.078262
| 71> *
| 72>
| 73>                          ****END OF INPUT****
 Total Charge           Charge          ....    0
 Multiplicity           Mult            ....    1
 Number of Electrons    NEL             ....   36
Dispersion correction           -0.001485273
FINAL SINGLE POINT ENERGY      -231.467772121126
Dispersion correction           -0.000238402
FINAL SINGLE POINT ENERGY      -115.734527830638

CARTESIAN COORDINATES (ANGSTROEM)
---------------------------------
  C      6.485865    6.830318    0.457606
  O      6.958456    6.355031   -0.794069
  H      7.907226    6.370384   -0.741623
  H      6.882538    7.854793    0.749982
  H      5.409756    6.912721    0.368214
  H      6.865832    6.186334    1.267891
  C      6.919599    9.058692   -3.158275
  O      8.019417    9.760549   -3.610489
  H      7.734549   10.559008   -4.039100
  H      7.207439    8.083868   -2.804231
  H      6.309930    9.559886   -2.331122
  H      6.251835    8.980277   -4.078262

 Multiplicity           Mult            ....    1
 Number of Electrons    NEL             ....   18
 Basis Dimension        Dim             ....  172

ORBITAL ENERGIES
----------------

  NO   OCC          E(Eh)            E(eV)
   0   2.0000     -19.228760      -523.2412
   1   2.0000     -10.319636      -280.8116
   2   2.0000      -1.149031       -31.2667
   3   2.0000      -0.790878       -21.5209
   4   2.0000      -0.615129       -16.7385
   5   2.0000      -0.544318       -14.8116
   6   2.0000      -0.533082       -14.5059
   7   2.0000      -0.429550       -11.6887
   8   2.0000      -0.367714       -10.0060
   9   0.0000       0.083913         2.2834
  10   0.0000       0.115117         3.1325
  11   0.0000       0.157088         4.2746
  12   0.0000       0.159440         4.3386
  13   0.0000       0.188051         5.1171

MULLIKEN ATOMIC CHARGES
-----------------------
   0 C :   -0.000848
   1 O :    0.000075
   2 H :   -0.000042
   3 H :    0.000116
   4 H :    0.000119
   5 H :   -0.000007
   6 C :   -0.154486
   7 O :   -0.464632
   8 H :    0.317305
   9 H :    0.119668
  10 H :    0.090151
  11 H :    0.092582
Sum of atomic charges:    0.0000000

LOEWDIN ATOMIC CHARGES
----------------------
   0 C :   -0.001201
   1 O :   -0.003072
   2 H :   -0.001179
   3 H :   -0.000185
   4 H :   -0.000064
   5 H :   -0.000013
   6 C :   -0.413441
   7 O :   -0.050144
   8 H :    0.165222
   9 H :    0.103664
  10 H :    0.098810
  11 H :    0.101603

  Mayer bond orders larger than 0.1
B(  6-C ,  7-O ) :   1.0056 B(  6-C ,  9-H ) :   0.9715 B(  6-C , 10-H ) :   0.9645
B(  6-C , 11-H ) :   0.9893 B(  7-O ,  8-H ) :   0.8972

Dispersion correction           -0.000232713
FINAL SINGLE POINT ENERGY      -115.731281980248

DIPOLE MOMENT
-------------
                                X             Y             Z
Electronic contribution:      1.63017       0.77094      -0.44750
Nuclear contribution   :     -2.19582      -0.53267       0.33613
                        -----------------------------------------
Total Dipole Moment    :     -0.56565       0.23827      -0.11137
                        -----------------------------------------
Magnitude (a.u.)       :      0.62381
Magnitude (Debye)      :      1.58559

Rotational constants in cm-1:     4.160536     0.859767     0.829744
Rotational constants in MHz : 124729.737350 25775.160114 24875.106560

                             ****ORCA TERMINATED NORMALLY****
TOTAL RUN TIME: 0 days 0 hours 0 minutes 48 seconds 489 msec
