                         Program Version 4.1.2  - RELEASE  -
|  1> #Run DFT-D3 single point of the dimer
|  2> ! wB97X-D3 def2-TZVP TIGHTSCF CHELPG PMODEL PAL8
|  3>
|  4> %base "12-23_DFT_AB"
|  5>
|  6> %scf
|  7> MaxIter 1000
|  8> end
|  9>
| 10> * xyz 0 1
| 11>   C                      5.213601             -6.424230            1.445439
| 12>   O                      5.630218             -5.208946            2.075847
| 13>   H                      5.563530             -4.576802            1.354313
| 14>   H                      5.329758             -7.331916            2.140380
| 15>   H                      4.144093             -6.377885            1.182249
| 16>   H                      5.866397             -6.714165            0.524728
| 17>   C                      9.090868             -8.007931            2.692918
| 18>   O                      10.013934            -7.928365            3.785060
| 19>   H                      10.517528            -8.704845            3.871032
| 20>   H                      8.709052             -9.040337            2.602073
| 21>   H                      8.245533             -7.282349            2.795206
| 22>   H                      9.553609             -7.806577            1.696125
| 23> *
| 24>
| 25> #Run DFT-D3 single point of the molecule with dimer basis set
| 26> $new_job
| 27> %base "12-23_DFT_A"
| 28> ! wB97X-D3 def2-TZVP TIGHTSCF CHELPG PMODEL
| 29>
| 30> %scf
| 31> MaxIter 1000
| 32> end
| 33>
| 34> * xyz 0 1
| 35>   C                      5.213601             -6.424230            1.445439
| 36>   O                      5.630218             -5.208946            2.075847
| 37>   H                      5.563530             -4.576802            1.354313
| 38>   H                      5.329758             -7.331916            2.140380
| 39>   H                      4.144093             -6.377885            1.182249
| 40>   H                      5.866397             -6.714165            0.524728
| 41>   C                    : 9.090868             -8.007931            2.692918
| 42>   O                    : 10.013934            -7.928365            3.785060
| 43>   H                    : 10.517528            -8.704845            3.871032
| 44>   H                    : 8.709052             -9.040337            2.602073
| 45>   H                    : 8.245533             -7.282349            2.795206
| 46>   H                    : 9.553609             -7.806577            1.696125
| 47> *
| 48>
| 49> #Run DFT-D3 single point of the particle with dimer basis set
| 50> $new_job
| 51> %base "12-23_DFT_B"
| 52> ! wB97X-D3 def2-TZVP TIGHTSCF CHELPG PMODEL
| 53>
| 54> %scf
| 55> MaxIter 1000
| 56> end
| 57>
| 58> * xyz 0 1
| 59>   C                    : 5.213601             -6.424230            1.445439
| 60>   O                    : 5.630218             -5.208946            2.075847
| 61>   H                    : 5.563530             -4.576802            1.354313
| 62>   H                    : 5.329758             -7.331916            2.140380
| 63>   H                    : 4.144093             -6.377885            1.182249
| 64>   H                    : 5.866397             -6.714165            0.524728
| 65>   C                      9.090868             -8.007931            2.692918
| 66>   O                      10.013934            -7.928365            3.785060
| 67>   H                      10.517528            -8.704845            3.871032
| 68>   H                      8.709052             -9.040337            2.602073
| 69>   H                      8.245533             -7.282349            2.795206
| 70>   H                      9.553609             -7.806577            1.696125
| 71> *
| 72>
| 73>                          ****END OF INPUT****
 Total Charge           Charge          ....    0
 Multiplicity           Mult            ....    1
 Number of Electrons    NEL             ....   36
Dispersion correction           -0.001244773
FINAL SINGLE POINT ENERGY      -231.464437172152
Dispersion correction           -0.000260361
FINAL SINGLE POINT ENERGY      -115.730655338320

CARTESIAN COORDINATES (ANGSTROEM)
---------------------------------
  C      5.213601   -6.424230    1.445439
  O      5.630218   -5.208946    2.075847
  H      5.563530   -4.576802    1.354313
  H      5.329758   -7.331916    2.140380
  H      4.144093   -6.377885    1.182249
  H      5.866397   -6.714165    0.524728
  C      9.090868   -8.007931    2.692918
  O     10.013934   -7.928365    3.785060
  H     10.517528   -8.704845    3.871032
  H      8.709052   -9.040337    2.602073
  H      8.245533   -7.282349    2.795206
  H      9.553609   -7.806577    1.696125

 Multiplicity           Mult            ....    1
 Number of Electrons    NEL             ....   18
 Basis Dimension        Dim             ....  172

ORBITAL ENERGIES
----------------

  NO   OCC          E(Eh)            E(eV)
   0   2.0000     -19.227369      -523.2033
   1   2.0000     -10.322417      -280.8873
   2   2.0000      -1.135152       -30.8891
   3   2.0000      -0.796875       -21.6841
   4   2.0000      -0.613840       -16.7034
   5   2.0000      -0.532482       -14.4896
   6   2.0000      -0.527096       -14.3430
   7   2.0000      -0.432455       -11.7677
   8   2.0000      -0.373064       -10.1516
   9   0.0000       0.081237         2.2106
  10   0.0000       0.118236         3.2174
  11   0.0000       0.147139         4.0039
  12   0.0000       0.167003         4.5444
  13   0.0000       0.183103         4.9825

MULLIKEN ATOMIC CHARGES
-----------------------
   0 C :    0.000192
   1 O :   -0.000010
   2 H :   -0.000004
   3 H :   -0.000765
   4 H :   -0.000009
   5 H :    0.000054
   6 C :   -0.165620
   7 O :   -0.474024
   8 H :    0.311772
   9 H :    0.103310
  10 H :    0.125925
  11 H :    0.099178
Sum of atomic charges:   -0.0000000

LOEWDIN ATOMIC CHARGES
----------------------
   0 C :   -0.001745
   1 O :   -0.000159
   2 H :   -0.000018
   3 H :   -0.000772
   4 H :   -0.000017
   5 H :   -0.000140
   6 C :   -0.375707
   7 O :   -0.075699
   8 H :    0.146202
   9 H :    0.097430
  10 H :    0.113272
  11 H :    0.097353

  Mayer bond orders larger than 0.1
B(  6-C ,  7-O ) :   1.0030 B(  6-C ,  9-H ) :   0.9822 B(  6-C , 10-H ) :   0.9723
B(  6-C , 11-H ) :   0.9678 B(  7-O ,  8-H ) :   0.9034

Dispersion correction           -0.000266794
FINAL SINGLE POINT ENERGY      -115.733022329381

DIPOLE MOMENT
-------------
                                X             Y             Z
Electronic contribution:      1.12529       0.25043       1.49008
Nuclear contribution   :     -1.17997      -0.80618      -1.88034
                        -----------------------------------------
Total Dipole Moment    :     -0.05468      -0.55575      -0.39026
                        -----------------------------------------
Magnitude (a.u.)       :      0.68129
Magnitude (Debye)      :      1.73169

Rotational constants in cm-1:     4.325746     0.804580     0.773471
Rotational constants in MHz : 129682.601895 24120.695923 23188.090340

                             ****ORCA TERMINATED NORMALLY****
TOTAL RUN TIME: 0 days 0 hours 1 minutes 4 seconds 729 msec
