                         Program Version 4.1.2  - RELEASE  -
|  1> #Run DFT-D3 single point of the dimer
|  2> ! wB97X-D3 def2-TZVP TIGHTSCF CHELPG PMODEL PAL8
|  3>
|  4> %base "13-216_DFT_AB"
|  5>
|  6> %scf
|  7> MaxIter 1000
|  8> end
|  9>
| 10> * xyz 0 1
| 11>   C                      3.154747             -1.537589            10.018817
| 12>   O                      2.002198             -1.825710            9.280145
| 13>   H                      2.051071             -1.419218            8.388134
| 14>   H                      4.096436             -1.740838            9.439830
| 15>   H                      3.159639             -0.485921            10.290562
| 16>   H                      3.143210             -2.149505            10.924553
| 17>   C                      0.404256             -2.421285            6.257709
| 18>   O                      -0.117990            -3.404198            7.145016
| 19>   H                      -0.354279            -3.007264            7.988121
| 20>   H                      1.466461             -2.287587            6.424802
| 21>   H                      0.067196             -2.692540            5.254666
| 22>   H                      -0.059025            -1.418658            6.470274
| 23> *
| 24>
| 25> #Run DFT-D3 single point of the molecule with dimer basis set
| 26> $new_job
| 27> %base "13-216_DFT_A"
| 28> ! wB97X-D3 def2-TZVP TIGHTSCF CHELPG PMODEL
| 29>
| 30> %scf
| 31> MaxIter 1000
| 32> end
| 33>
| 34> * xyz 0 1
| 35>   C                      3.154747             -1.537589            10.018817
| 36>   O                      2.002198             -1.825710            9.280145
| 37>   H                      2.051071             -1.419218            8.388134
| 38>   H                      4.096436             -1.740838            9.439830
| 39>   H                      3.159639             -0.485921            10.290562
| 40>   H                      3.143210             -2.149505            10.924553
| 41>   C                    : 0.404256             -2.421285            6.257709
| 42>   O                    : -0.117990            -3.404198            7.145016
| 43>   H                    : -0.354279            -3.007264            7.988121
| 44>   H                    : 1.466461             -2.287587            6.424802
| 45>   H                    : 0.067196             -2.692540            5.254666
| 46>   H                    : -0.059025            -1.418658            6.470274
| 47> *
| 48>
| 49> #Run DFT-D3 single point of the particle with dimer basis set
| 50> $new_job
| 51> %base "13-216_DFT_B"
| 52> ! wB97X-D3 def2-TZVP TIGHTSCF CHELPG PMODEL
| 53>
| 54> %scf
| 55> MaxIter 1000
| 56> end
| 57>
| 58> * xyz 0 1
| 59>   C                    : 3.154747             -1.537589            10.018817
| 60>   O                    : 2.002198             -1.825710            9.280145
| 61>   H                    : 2.051071             -1.419218            8.388134
| 62>   H                    : 4.096436             -1.740838            9.439830
| 63>   H                    : 3.159639             -0.485921            10.290562
| 64>   H                    : 3.143210             -2.149505            10.924553
| 65>   C                      0.404256             -2.421285            6.257709
| 66>   O                      -0.117990            -3.404198            7.145016
| 67>   H                      -0.354279            -3.007264            7.988121
| 68>   H                      1.466461             -2.287587            6.424802
| 69>   H                      0.067196             -2.692540            5.254666
| 70>   H                      -0.059025            -1.418658            6.470274
| 71> *
| 72>
| 73>                          ****END OF INPUT****
 Total Charge           Charge          ....    0
 Multiplicity           Mult            ....    1
 Number of Electrons    NEL             ....   36
Dispersion correction           -0.001695210
FINAL SINGLE POINT ENERGY      -231.471790952833
Dispersion correction           -0.000238558
FINAL SINGLE POINT ENERGY      -115.736347095055

CARTESIAN COORDINATES (ANGSTROEM)
---------------------------------
  C      3.154747   -1.537589   10.018817
  O      2.002198   -1.825710    9.280145
  H      2.051071   -1.419218    8.388134
  H      4.096436   -1.740838    9.439830
  H      3.159639   -0.485921   10.290562
  H      3.143210   -2.149505   10.924553
  C      0.404256   -2.421285    6.257709
  O     -0.117990   -3.404198    7.145016
  H     -0.354279   -3.007264    7.988121
  H      1.466461   -2.287587    6.424802
  H      0.067196   -2.692540    5.254666
  H     -0.059025   -1.418658    6.470274

 Multiplicity           Mult            ....    1
 Number of Electrons    NEL             ....   18
 Basis Dimension        Dim             ....  172

ORBITAL ENERGIES
----------------

  NO   OCC          E(Eh)            E(eV)
   0   2.0000     -19.227025      -523.1939
   1   2.0000     -10.316518      -280.7267
   2   2.0000      -1.130512       -30.7628
   3   2.0000      -0.794307       -21.6142
   4   2.0000      -0.608826       -16.5670
   5   2.0000      -0.549550       -14.9540
   6   2.0000      -0.517625       -14.0853
   7   2.0000      -0.428110       -11.6495
   8   2.0000      -0.373941       -10.1755
   9   0.0000       0.079601         2.1660
  10   0.0000       0.117950         3.2096
  11   0.0000       0.152796         4.1578
  12   0.0000       0.180827         4.9206
  13   0.0000       0.190880         5.1941

MULLIKEN ATOMIC CHARGES
-----------------------
   0 C :   -0.000445
   1 O :   -0.001493
   2 H :   -0.000015
   3 H :   -0.000040
   4 H :   -0.000006
   5 H :    0.000035
   6 C :   -0.168697
   7 O :   -0.486958
   8 H :    0.316236
   9 H :    0.114718
  10 H :    0.128196
  11 H :    0.098468
Sum of atomic charges:    0.0000000

LOEWDIN ATOMIC CHARGES
----------------------
   0 C :   -0.000243
   1 O :   -0.002901
   2 H :   -0.005676
   3 H :   -0.000011
   4 H :   -0.000007
   5 H :   -0.000004
   6 C :   -0.374682
   7 O :   -0.087857
   8 H :    0.165780
   9 H :    0.096230
  10 H :    0.108189
  11 H :    0.101182

  Mayer bond orders larger than 0.1
B(  6-C ,  7-O ) :   0.9897 B(  6-C ,  9-H ) :   0.9714 B(  6-C , 10-H ) :   0.9738
B(  6-C , 11-H ) :   0.9838 B(  7-O ,  8-H ) :   0.8988

Dispersion correction           -0.000244149
FINAL SINGLE POINT ENERGY      -115.734045267338

DIPOLE MOMENT
-------------
                                X             Y             Z
Electronic contribution:     -0.52778      -1.39762       0.93318
Nuclear contribution   :      0.56761       2.06324      -0.74866
                        -----------------------------------------
Total Dipole Moment    :      0.03982       0.66562       0.18451
                        -----------------------------------------
Magnitude (a.u.)       :      0.69187
Magnitude (Debye)      :      1.75858

Rotational constants in cm-1:     4.199088     0.823498     0.797360
Rotational constants in MHz : 125885.504052 24687.843552 23904.242713

                             ****ORCA TERMINATED NORMALLY****
TOTAL RUN TIME: 0 days 0 hours 1 minutes 1 seconds 762 msec
