                         Program Version 4.1.2  - RELEASE  -
|  1> #Run DFT-D3 single point of the dimer
|  2> ! wB97X-D3 def2-TZVP TIGHTSCF CHELPG PMODEL PAL8
|  3>
|  4> %base "14-125_DFT_AB"
|  5>
|  6> %scf
|  7> MaxIter 1000
|  8> end
|  9>
| 10> * xyz 0 1
| 11>   C                      -4.769766            -3.580536            9.570225
| 12>   O                      -4.512011            -2.670247            8.537336
| 13>   H                      -4.507633            -1.874928            9.074293
| 14>   H                      -4.004359            -3.378747            10.345685
| 15>   H                      -5.746053            -3.566870            10.002338
| 16>   H                      -4.559165            -4.618552            9.236661
| 17>   C                      -3.954571            1.031341             8.637130
| 18>   O                      -4.137439            0.344874             9.855359
| 19>   H                      -3.949759            0.977031             10.528426
| 20>   H                      -2.901997            1.319992             8.390661
| 21>   H                      -4.152900            0.485042             7.742376
| 22>   H                      -4.483520            2.000023             8.705440
| 23> *
| 24>
| 25> #Run DFT-D3 single point of the molecule with dimer basis set
| 26> $new_job
| 27> %base "14-125_DFT_A"
| 28> ! wB97X-D3 def2-TZVP TIGHTSCF CHELPG PMODEL
| 29>
| 30> %scf
| 31> MaxIter 1000
| 32> end
| 33>
| 34> * xyz 0 1
| 35>   C                      -4.769766            -3.580536            9.570225
| 36>   O                      -4.512011            -2.670247            8.537336
| 37>   H                      -4.507633            -1.874928            9.074293
| 38>   H                      -4.004359            -3.378747            10.345685
| 39>   H                      -5.746053            -3.566870            10.002338
| 40>   H                      -4.559165            -4.618552            9.236661
| 41>   C                    : -3.954571            1.031341             8.637130
| 42>   O                    : -4.137439            0.344874             9.855359
| 43>   H                    : -3.949759            0.977031             10.528426
| 44>   H                    : -2.901997            1.319992             8.390661
| 45>   H                    : -4.152900            0.485042             7.742376
| 46>   H                    : -4.483520            2.000023             8.705440
| 47> *
| 48>
| 49> #Run DFT-D3 single point of the particle with dimer basis set
| 50> $new_job
| 51> %base "14-125_DFT_B"
| 52> ! wB97X-D3 def2-TZVP TIGHTSCF CHELPG PMODEL
| 53>
| 54> %scf
| 55> MaxIter 1000
| 56> end
| 57>
| 58> * xyz 0 1
| 59>   C                    : -4.769766            -3.580536            9.570225
| 60>   O                    : -4.512011            -2.670247            8.537336
| 61>   H                    : -4.507633            -1.874928            9.074293
| 62>   H                    : -4.004359            -3.378747            10.345685
| 63>   H                    : -5.746053            -3.566870            10.002338
| 64>   H                    : -4.559165            -4.618552            9.236661
| 65>   C                      -3.954571            1.031341             8.637130
| 66>   O                      -4.137439            0.344874             9.855359
| 67>   H                      -3.949759            0.977031             10.528426
| 68>   H                      -2.901997            1.319992             8.390661
| 69>   H                      -4.152900            0.485042             7.742376
| 70>   H                      -4.483520            2.000023             8.705440
| 71> *
| 72>
| 73>                          ****END OF INPUT****
 Total Charge           Charge          ....    0
 Multiplicity           Mult            ....    1
 Number of Electrons    NEL             ....   36
Dispersion correction           -0.001508106
FINAL SINGLE POINT ENERGY      -231.466419967027
Dispersion correction           -0.000208334
FINAL SINGLE POINT ENERGY      -115.730353714471

CARTESIAN COORDINATES (ANGSTROEM)
---------------------------------
  C     -4.769766   -3.580536    9.570225
  O     -4.512011   -2.670247    8.537336
  H     -4.507633   -1.874928    9.074293
  H     -4.004359   -3.378747   10.345685
  H     -5.746053   -3.566870   10.002338
  H     -4.559165   -4.618552    9.236661
  C     -3.954571    1.031341    8.637130
  O     -4.137439    0.344874    9.855359
  H     -3.949759    0.977031   10.528426
  H     -2.901997    1.319992    8.390661
  H     -4.152900    0.485042    7.742376
  H     -4.483520    2.000023    8.705440

 Multiplicity           Mult            ....    1
 Number of Electrons    NEL             ....   18
 Basis Dimension        Dim             ....  172

ORBITAL ENERGIES
----------------

  NO   OCC          E(Eh)            E(eV)
   0   2.0000     -19.233389      -523.3671
   1   2.0000     -10.315148      -280.6894
   2   2.0000      -1.145042       -31.1582
   3   2.0000      -0.798513       -21.7286
   4   2.0000      -0.615867       -16.7586
   5   2.0000      -0.551456       -15.0059
   6   2.0000      -0.521245       -14.1838
   7   2.0000      -0.438946       -11.9443
   8   2.0000      -0.371563       -10.1108
   9   0.0000       0.100279         2.7287
  10   0.0000       0.120321         3.2741
  11   0.0000       0.150684         4.1003
  12   0.0000       0.182635         4.9697
  13   0.0000       0.200721         5.4619

MULLIKEN ATOMIC CHARGES
-----------------------
   0 C :    0.000827
   1 O :   -0.000065
   2 H :   -0.004591
   3 H :   -0.001172
   4 H :   -0.000119
   5 H :   -0.000077
   6 C :   -0.173177
   7 O :   -0.450706
   8 H :    0.309007
   9 H :    0.088775
  10 H :    0.127674
  11 H :    0.103623
Sum of atomic charges:    0.0000000

LOEWDIN ATOMIC CHARGES
----------------------
   0 C :   -0.001099
   1 O :   -0.000877
   2 H :   -0.012606
   3 H :   -0.000381
   4 H :   -0.000033
   5 H :   -0.000008
   6 C :   -0.393878
   7 O :   -0.051043
   8 H :    0.161028
   9 H :    0.096146
  10 H :    0.103559
  11 H :    0.099192

  Mayer bond orders larger than 0.1
B(  6-C ,  7-O ) :   1.0007 B(  6-C ,  9-H ) :   0.9678 B(  6-C , 10-H ) :   0.9744
B(  6-C , 11-H ) :   0.9837 B(  7-O ,  8-H ) :   0.9030

Dispersion correction           -0.000240866
FINAL SINGLE POINT ENERGY      -115.729559913107

DIPOLE MOMENT
-------------
                                X             Y             Z
Electronic contribution:     -0.41649      -1.15654       1.54418
Nuclear contribution   :      0.61187       1.81949      -1.60288
                        -----------------------------------------
Total Dipole Moment    :      0.19539       0.66295      -0.05870
                        -----------------------------------------
Magnitude (a.u.)       :      0.69363
Magnitude (Debye)      :      1.76306

Rotational constants in cm-1:     4.434824     0.830228     0.795083
Rotational constants in MHz : 132952.692983 24889.597280 23835.987984

                             ****ORCA TERMINATED NORMALLY****
TOTAL RUN TIME: 0 days 0 hours 1 minutes 9 seconds 207 msec
