                         Program Version 4.1.2  - RELEASE  -
|  1> #Run DFT-D3 single point of the dimer
|  2> ! wB97X-D3 def2-TZVP TIGHTSCF CHELPG PMODEL PAL8
|  3>
|  4> %base "13-15_DFT_AB"
|  5>
|  6> %scf
|  7> MaxIter 1000
|  8> end
|  9>
| 10> * xyz 0 1
| 11>   C                      -1.759558            -3.697240            10.473655
| 12>   O                      -1.814703            -2.791501            9.446395
| 13>   H                      -1.493921            -1.963915            9.817831
| 14>   H                      -0.839036            -3.765161            10.942798
| 15>   H                      -2.437705            -3.484567            11.215743
| 16>   H                      -1.906414            -4.658250            10.028213
| 17>   C                      3.154747             -1.537589            10.018817
| 18>   O                      2.002198             -1.825710            9.280145
| 19>   H                      2.051071             -1.419218            8.388134
| 20>   H                      4.096436             -1.740838            9.439830
| 21>   H                      3.159639             -0.485921            10.290562
| 22>   H                      3.143210             -2.149505            10.924553
| 23> *
| 24>
| 25> #Run DFT-D3 single point of the molecule with dimer basis set
| 26> $new_job
| 27> %base "13-15_DFT_A"
| 28> ! wB97X-D3 def2-TZVP TIGHTSCF CHELPG PMODEL
| 29>
| 30> %scf
| 31> MaxIter 1000
| 32> end
| 33>
| 34> * xyz 0 1
| 35>   C                      -1.759558            -3.697240            10.473655
| 36>   O                      -1.814703            -2.791501            9.446395
| 37>   H                      -1.493921            -1.963915            9.817831
| 38>   H                      -0.839036            -3.765161            10.942798
| 39>   H                      -2.437705            -3.484567            11.215743
| 40>   H                      -1.906414            -4.658250            10.028213
| 41>   C                    : 3.154747             -1.537589            10.018817
| 42>   O                    : 2.002198             -1.825710            9.280145
| 43>   H                    : 2.051071             -1.419218            8.388134
| 44>   H                    : 4.096436             -1.740838            9.439830
| 45>   H                    : 3.159639             -0.485921            10.290562
| 46>   H                    : 3.143210             -2.149505            10.924553
| 47> *
| 48>
| 49> #Run DFT-D3 single point of the particle with dimer basis set
| 50> $new_job
| 51> %base "13-15_DFT_B"
| 52> ! wB97X-D3 def2-TZVP TIGHTSCF CHELPG PMODEL
| 53>
| 54> %scf
| 55> MaxIter 1000
| 56> end
| 57>
| 58> * xyz 0 1
| 59>   C                    : -1.759558            -3.697240            10.473655
| 60>   O                    : -1.814703            -2.791501            9.446395
| 61>   H                    : -1.493921            -1.963915            9.817831
| 62>   H                    : -0.839036            -3.765161            10.942798
| 63>   H                    : -2.437705            -3.484567            11.215743
| 64>   H                    : -1.906414            -4.658250            10.028213
| 65>   C                      3.154747             -1.537589            10.018817
| 66>   O                      2.002198             -1.825710            9.280145
| 67>   H                      2.051071             -1.419218            8.388134
| 68>   H                      4.096436             -1.740838            9.439830
| 69>   H                      3.159639             -0.485921            10.290562
| 70>   H                      3.143210             -2.149505            10.924553
| 71> *
| 72>
| 73>                          ****END OF INPUT****
 Total Charge           Charge          ....    0
 Multiplicity           Mult            ....    1
 Number of Electrons    NEL             ....   36
Dispersion correction           -0.000930096
FINAL SINGLE POINT ENERGY      -231.465773838534
Dispersion correction           -0.000194011
FINAL SINGLE POINT ENERGY      -115.728444404597

CARTESIAN COORDINATES (ANGSTROEM)
---------------------------------
  C     -1.759558   -3.697240   10.473655
  O     -1.814703   -2.791501    9.446395
  H     -1.493921   -1.963915    9.817831
  H     -0.839036   -3.765161   10.942798
  H     -2.437705   -3.484567   11.215743
  H     -1.906414   -4.658250   10.028213
  C      3.154747   -1.537589   10.018817
  O      2.002198   -1.825710    9.280145
  H      2.051071   -1.419218    8.388134
  H      4.096436   -1.740838    9.439830
  H      3.159639   -0.485921   10.290562
  H      3.143210   -2.149505   10.924553

 Multiplicity           Mult            ....    1
 Number of Electrons    NEL             ....   18
 Basis Dimension        Dim             ....  172

ORBITAL ENERGIES
----------------

  NO   OCC          E(Eh)            E(eV)
   0   2.0000     -19.230238      -523.2814
   1   2.0000     -10.313771      -280.6520
   2   2.0000      -1.135198       -30.8903
   3   2.0000      -0.791791       -21.5457
   4   2.0000      -0.610797       -16.6206
   5   2.0000      -0.541221       -14.7274
   6   2.0000      -0.529288       -14.4026
   7   2.0000      -0.430134       -11.7045
   8   2.0000      -0.370407       -10.0793
   9   0.0000       0.096138         2.6160
  10   0.0000       0.116569         3.1720
  11   0.0000       0.153807         4.1853
  12   0.0000       0.184298         5.0150
  13   0.0000       0.189875         5.1668

MULLIKEN ATOMIC CHARGES
-----------------------
   0 C :    0.000857
   1 O :   -0.000106
   2 H :   -0.001732
   3 H :   -0.001518
   4 H :   -0.000065
   5 H :    0.000047
   6 C :   -0.149559
   7 O :   -0.479557
   8 H :    0.317769
   9 H :    0.095293
  10 H :    0.099328
  11 H :    0.119243
Sum of atomic charges:    0.0000000

LOEWDIN ATOMIC CHARGES
----------------------
   0 C :   -0.000649
   1 O :   -0.000268
   2 H :   -0.001436
   3 H :   -0.000436
   4 H :   -0.000008
   5 H :   -0.000003
   6 C :   -0.398025
   7 O :   -0.078433
   8 H :    0.181281
   9 H :    0.097954
  10 H :    0.091233
  11 H :    0.108788

  Mayer bond orders larger than 0.1
B(  6-C ,  7-O ) :   0.9963 B(  6-C ,  9-H ) :   0.9749 B(  6-C , 10-H ) :   0.9771
B(  6-C , 11-H ) :   0.9723 B(  7-O ,  8-H ) :   0.8916

Dispersion correction           -0.000238558
FINAL SINGLE POINT ENERGY      -115.736099018639

DIPOLE MOMENT
-------------
                                X             Y             Z
Electronic contribution:     -1.52939      -0.45799      -0.80317
Nuclear contribution   :      2.01286       0.82862       0.53260
                        -----------------------------------------
Total Dipole Moment    :      0.48347       0.37062      -0.27057
                        -----------------------------------------
Magnitude (a.u.)       :      0.66657
Magnitude (Debye)      :      1.69428

Rotational constants in cm-1:     4.210256     0.844931     0.811271
Rotational constants in MHz : 126220.305148 25330.407466 24321.283147

                             ****ORCA TERMINATED NORMALLY****
TOTAL RUN TIME: 0 days 0 hours 1 minutes 2 seconds 56 msec
