                         Program Version 4.1.2  - RELEASE  -
|  1> #Run DFT-D3 single point of the dimer
|  2> ! wB97X-D3 def2-TZVP TIGHTSCF CHELPG PMODEL PAL8
|  3>
|  4> %base "17-144_DFT_AB"
|  5>
|  6> %scf
|  7> MaxIter 1000
|  8> end
|  9>
| 10> * xyz 0 1
| 11>   C                      2.761676             -6.208087            3.528277
| 12>   O                      3.031626             -7.417651            2.918432
| 13>   H                      2.459564             -7.478778            2.192738
| 14>   H                      3.046349             -6.231249            4.572474
| 15>   H                      3.447008             -5.440362            3.205289
| 16>   H                      1.725867             -5.883107            3.328720
| 17>   C                      5.922899             -9.080405            1.956200
| 18>   O                      5.625178             -10.309372           1.275077
| 19>   H                      6.105956             -10.299808           0.463418
| 20>   H                      6.931441             -9.160223            2.458999
| 21>   H                      5.929602             -8.197406            1.305782
| 22>   H                      5.164127             -8.764166            2.695048
| 23> *
| 24>
| 25> #Run DFT-D3 single point of the molecule with dimer basis set
| 26> $new_job
| 27> %base "17-144_DFT_A"
| 28> ! wB97X-D3 def2-TZVP TIGHTSCF CHELPG PMODEL
| 29>
| 30> %scf
| 31> MaxIter 1000
| 32> end
| 33>
| 34> * xyz 0 1
| 35>   C                      2.761676             -6.208087            3.528277
| 36>   O                      3.031626             -7.417651            2.918432
| 37>   H                      2.459564             -7.478778            2.192738
| 38>   H                      3.046349             -6.231249            4.572474
| 39>   H                      3.447008             -5.440362            3.205289
| 40>   H                      1.725867             -5.883107            3.328720
| 41>   C                    : 5.922899             -9.080405            1.956200
| 42>   O                    : 5.625178             -10.309372           1.275077
| 43>   H                    : 6.105956             -10.299808           0.463418
| 44>   H                    : 6.931441             -9.160223            2.458999
| 45>   H                    : 5.929602             -8.197406            1.305782
| 46>   H                    : 5.164127             -8.764166            2.695048
| 47> *
| 48>
| 49> #Run DFT-D3 single point of the particle with dimer basis set
| 50> $new_job
| 51> %base "17-144_DFT_B"
| 52> ! wB97X-D3 def2-TZVP TIGHTSCF CHELPG PMODEL
| 53>
| 54> %scf
| 55> MaxIter 1000
| 56> end
| 57>
| 58> * xyz 0 1
| 59>   C                    : 2.761676             -6.208087            3.528277
| 60>   O                    : 3.031626             -7.417651            2.918432
| 61>   H                    : 2.459564             -7.478778            2.192738
| 62>   H                    : 3.046349             -6.231249            4.572474
| 63>   H                    : 3.447008             -5.440362            3.205289
| 64>   H                    : 1.725867             -5.883107            3.328720
| 65>   C                      5.922899             -9.080405            1.956200
| 66>   O                      5.625178             -10.309372           1.275077
| 67>   H                      6.105956             -10.299808           0.463418
| 68>   H                      6.931441             -9.160223            2.458999
| 69>   H                      5.929602             -8.197406            1.305782
| 70>   H                      5.164127             -8.764166            2.695048
| 71> *
| 72>
| 73>                          ****END OF INPUT****
 Total Charge           Charge          ....    0
 Multiplicity           Mult            ....    1
 Number of Electrons    NEL             ....   36
Dispersion correction           -0.001401487
FINAL SINGLE POINT ENERGY      -231.465288643094
Dispersion correction           -0.000222216
FINAL SINGLE POINT ENERGY      -115.730908647293

CARTESIAN COORDINATES (ANGSTROEM)
---------------------------------
  C      2.761676   -6.208087    3.528277
  O      3.031626   -7.417651    2.918432
  H      2.459564   -7.478778    2.192738
  H      3.046349   -6.231249    4.572474
  H      3.447008   -5.440362    3.205289
  H      1.725867   -5.883107    3.328720
  C      5.922899   -9.080405    1.956200
  O      5.625178  -10.309372    1.275077
  H      6.105956  -10.299808    0.463418
  H      6.931441   -9.160223    2.458999
  H      5.929602   -8.197406    1.305782
  H      5.164127   -8.764166    2.695048

 Multiplicity           Mult            ....    1
 Number of Electrons    NEL             ....   18
 Basis Dimension        Dim             ....  172

ORBITAL ENERGIES
----------------

  NO   OCC          E(Eh)            E(eV)
   0   2.0000     -19.231487      -523.3154
   1   2.0000     -10.320984      -280.8483
   2   2.0000      -1.134595       -30.8739
   3   2.0000      -0.795385       -21.6435
   4   2.0000      -0.609109       -16.5747
   5   2.0000      -0.540648       -14.7118
   6   2.0000      -0.521257       -14.1841
   7   2.0000      -0.432732       -11.7752
   8   2.0000      -0.376780       -10.2527
   9   0.0000       0.083327         2.2674
  10   0.0000       0.118739         3.2310
  11   0.0000       0.149745         4.0748
  12   0.0000       0.166270         4.5244
  13   0.0000       0.183509         4.9935

MULLIKEN ATOMIC CHARGES
-----------------------
   0 C :   -0.000240
   1 O :    0.000166
   2 H :    0.000114
   3 H :   -0.000024
   4 H :   -0.000031
   5 H :   -0.000001
   6 C :   -0.177069
   7 O :   -0.471489
   8 H :    0.314161
   9 H :    0.104456
  10 H :    0.105454
  11 H :    0.124504
Sum of atomic charges:   -0.0000000

LOEWDIN ATOMIC CHARGES
----------------------
   0 C :   -0.000882
   1 O :   -0.004969
   2 H :   -0.000460
   3 H :   -0.000051
   4 H :   -0.000056
   5 H :   -0.000019
   6 C :   -0.379019
   7 O :   -0.083262
   8 H :    0.157951
   9 H :    0.102357
  10 H :    0.096234
  11 H :    0.112177

  Mayer bond orders larger than 0.1
B(  6-C ,  7-O ) :   1.0024 B(  6-C ,  9-H ) :   0.9751 B(  6-C , 10-H ) :   0.9765
B(  6-C , 11-H ) :   0.9702 B(  7-O ,  8-H ) :   0.9023

Dispersion correction           -0.000264146
FINAL SINGLE POINT ENERGY      -115.732598379730

DIPOLE MOMENT
-------------
                                X             Y             Z
Electronic contribution:     -0.51232      -1.68804      -0.79187
Nuclear contribution   :      0.91592       2.21176       0.53227
                        -----------------------------------------
Total Dipole Moment    :      0.40360       0.52372      -0.25961
                        -----------------------------------------
Magnitude (a.u.)       :      0.71033
Magnitude (Debye)      :      1.80551

Rotational constants in cm-1:     4.310513     0.795553     0.777453
Rotational constants in MHz : 129225.921358 23850.073663 23307.448864

                             ****ORCA TERMINATED NORMALLY****
TOTAL RUN TIME: 0 days 0 hours 1 minutes 12 seconds 901 msec
