                         Program Version 4.1.2  - RELEASE  -
|  1> #Run DFT-D3 single point of the dimer
|  2> ! wB97X-D3 def2-TZVP TIGHTSCF CHELPG PMODEL PAL8
|  3>
|  4> %base "21-2_DFT_AB"
|  5>
|  6> %scf
|  7> MaxIter 1000
|  8> end
|  9>
| 10> * xyz 0 1
| 11>   C                      -9.555378            -10.803507           -11.046135
| 12>   O                      -10.201272           -9.541897            -10.891227
| 13>   H                      -9.591396            -8.944921            -11.332116
| 14>   H                      -9.162109            -10.902993           -12.087031
| 15>   H                      -8.852526            -11.007908           -10.232011
| 16>   H                      -10.232557           -11.601163           -11.023796
| 17>   C                      -10.292282           -10.298115           -7.803485
| 18>   O                      -9.893971            -9.092329            -7.274887
| 19>   H                      -10.588177           -8.420497            -7.344512
| 20>   H                      -10.948231           -10.860862           -7.085478
| 21>   H                      -10.845330           -10.100252           -8.775210
| 22>   H                      -9.436841            -10.959219           -8.103490
| 23> *
| 24>
| 25> #Run DFT-D3 single point of the molecule with dimer basis set
| 26> $new_job
| 27> %base "21-2_DFT_A"
| 28> ! wB97X-D3 def2-TZVP TIGHTSCF CHELPG PMODEL
| 29>
| 30> %scf
| 31> MaxIter 1000
| 32> end
| 33>
| 34> * xyz 0 1
| 35>   C                      -9.555378            -10.803507           -11.046135
| 36>   O                      -10.201272           -9.541897            -10.891227
| 37>   H                      -9.591396            -8.944921            -11.332116
| 38>   H                      -9.162109            -10.902993           -12.087031
| 39>   H                      -8.852526            -11.007908           -10.232011
| 40>   H                      -10.232557           -11.601163           -11.023796
| 41>   C                    : -10.292282           -10.298115           -7.803485
| 42>   O                    : -9.893971            -9.092329            -7.274887
| 43>   H                    : -10.588177           -8.420497            -7.344512
| 44>   H                    : -10.948231           -10.860862           -7.085478
| 45>   H                    : -10.845330           -10.100252           -8.775210
| 46>   H                    : -9.436841            -10.959219           -8.103490
| 47> *
| 48>
| 49> #Run DFT-D3 single point of the particle with dimer basis set
| 50> $new_job
| 51> %base "21-2_DFT_B"
| 52> ! wB97X-D3 def2-TZVP TIGHTSCF CHELPG PMODEL
| 53>
| 54> %scf
| 55> MaxIter 1000
| 56> end
| 57>
| 58> * xyz 0 1
| 59>   C                    : -9.555378            -10.803507           -11.046135
| 60>   O                    : -10.201272           -9.541897            -10.891227
| 61>   H                    : -9.591396            -8.944921            -11.332116
| 62>   H                    : -9.162109            -10.902993           -12.087031
| 63>   H                    : -8.852526            -11.007908           -10.232011
| 64>   H                    : -10.232557           -11.601163           -11.023796
| 65>   C                      -10.292282           -10.298115           -7.803485
| 66>   O                      -9.893971            -9.092329            -7.274887
| 67>   H                      -10.588177           -8.420497            -7.344512
| 68>   H                      -10.948231           -10.860862           -7.085478
| 69>   H                      -10.845330           -10.100252           -8.775210
| 70>   H                      -9.436841            -10.959219           -8.103490
| 71> *
| 72>
| 73>                          ****END OF INPUT****
 Total Charge           Charge          ....    0
 Multiplicity           Mult            ....    1
 Number of Electrons    NEL             ....   36
Dispersion correction           -0.002056841
FINAL SINGLE POINT ENERGY      -231.464326800226
Dispersion correction           -0.000236253
FINAL SINGLE POINT ENERGY      -115.731189753304

CARTESIAN COORDINATES (ANGSTROEM)
---------------------------------
  C     -9.555378  -10.803507  -11.046135
  O    -10.201272   -9.541897  -10.891227
  H     -9.591396   -8.944921  -11.332116
  H     -9.162109  -10.902993  -12.087031
  H     -8.852526  -11.007908  -10.232011
  H    -10.232557  -11.601163  -11.023796
  C    -10.292282  -10.298115   -7.803485
  O     -9.893971   -9.092329   -7.274887
  H    -10.588177   -8.420497   -7.344512
  H    -10.948231  -10.860862   -7.085478
  H    -10.845330  -10.100252   -8.775210
  H     -9.436841  -10.959219   -8.103490

 Multiplicity           Mult            ....    1
 Number of Electrons    NEL             ....   18
 Basis Dimension        Dim             ....  172

ORBITAL ENERGIES
----------------

  NO   OCC          E(Eh)            E(eV)
   0   2.0000     -19.230451      -523.2872
   1   2.0000     -10.320626      -280.8385
   2   2.0000      -1.145723       -31.1767
   3   2.0000      -0.787761       -21.4361
   4   2.0000      -0.614026       -16.7085
   5   2.0000      -0.544628       -14.8201
   6   2.0000      -0.532633       -14.4937
   7   2.0000      -0.419151       -11.4057
   8   2.0000      -0.370954       -10.0942
   9   0.0000       0.086715         2.3596
  10   0.0000       0.116427         3.1681
  11   0.0000       0.153426         4.1749
  12   0.0000       0.175497         4.7755
  13   0.0000       0.177188         4.8215

MULLIKEN ATOMIC CHARGES
-----------------------
   0 C :   -0.012040
   1 O :    0.004273
   2 H :    0.000054
   3 H :   -0.000562
   4 H :    0.003119
   5 H :    0.001470
   6 C :   -0.145094
   7 O :   -0.470856
   8 H :    0.323256
   9 H :    0.093354
  10 H :    0.087965
  11 H :    0.115062
Sum of atomic charges:    0.0000000

LOEWDIN ATOMIC CHARGES
----------------------
   0 C :   -0.017076
   1 O :   -0.010286
   2 H :   -0.000513
   3 H :   -0.000204
   4 H :   -0.006631
   5 H :   -0.001325
   6 C :   -0.413913
   7 O :   -0.053150
   8 H :    0.178169
   9 H :    0.095683
  10 H :    0.111538
  11 H :    0.117709

  Mayer bond orders larger than 0.1
B(  6-C ,  7-O ) :   1.0082 B(  6-C ,  9-H ) :   0.9664 B(  6-C , 10-H ) :   0.9866
B(  6-C , 11-H ) :   0.9667 B(  7-O ,  8-H ) :   0.8895

Dispersion correction           -0.000243310
FINAL SINGLE POINT ENERGY      -115.732554022141

DIPOLE MOMENT
-------------
                                X             Y             Z
Electronic contribution:      0.70145       1.55658       0.81367
Nuclear contribution   :     -1.27572      -1.55240      -1.06422
                        -----------------------------------------
Total Dipole Moment    :     -0.57427       0.00418      -0.25055
                        -----------------------------------------
Magnitude (a.u.)       :      0.62656
Magnitude (Debye)      :      1.59259

Rotational constants in cm-1:     4.144845     0.852415     0.828809
Rotational constants in MHz : 124259.318913 25554.759978 24847.071885

                             ****ORCA TERMINATED NORMALLY****
TOTAL RUN TIME: 0 days 0 hours 1 minutes 6 seconds 631 msec
