                         Program Version 4.1.2  - RELEASE  -
|  1> #Run DFT-D3 single point of the dimer
|  2> ! wB97X-D3 def2-TZVP TIGHTSCF CHELPG PMODEL PAL8
|  3>
|  4> %base "19-96_DFT_AB"
|  5>
|  6> %scf
|  7> MaxIter 1000
|  8> end
|  9>
| 10> * xyz 0 1
| 11>   C                      6.919625             2.237632             2.945838
| 12>   O                      7.105568             3.614791             3.004067
| 13>   H                      7.927648             3.903414             2.617584
| 14>   H                      7.422164             1.719098             3.729250
| 15>   H                      5.841692             1.966989             3.041488
| 16>   H                      7.318918             1.785904             1.953686
| 17>   C                      5.315387             -0.297143            0.426428
| 18>   O                      5.717560             -1.458479            -0.103729
| 19>   H                      5.962384             -1.971798            0.628430
| 20>   H                      4.974802             0.396697             -0.343488
| 21>   H                      4.468870             -0.382213            1.072119
| 22>   H                      6.177868             0.154605             0.892551
| 23> *
| 24>
| 25> #Run DFT-D3 single point of the molecule with dimer basis set
| 26> $new_job
| 27> %base "19-96_DFT_A"
| 28> ! wB97X-D3 def2-TZVP TIGHTSCF CHELPG PMODEL
| 29>
| 30> %scf
| 31> MaxIter 1000
| 32> end
| 33>
| 34> * xyz 0 1
| 35>   C                      6.919625             2.237632             2.945838
| 36>   O                      7.105568             3.614791             3.004067
| 37>   H                      7.927648             3.903414             2.617584
| 38>   H                      7.422164             1.719098             3.729250
| 39>   H                      5.841692             1.966989             3.041488
| 40>   H                      7.318918             1.785904             1.953686
| 41>   C                    : 5.315387             -0.297143            0.426428
| 42>   O                    : 5.717560             -1.458479            -0.103729
| 43>   H                    : 5.962384             -1.971798            0.628430
| 44>   H                    : 4.974802             0.396697             -0.343488
| 45>   H                    : 4.468870             -0.382213            1.072119
| 46>   H                    : 6.177868             0.154605             0.892551
| 47> *
| 48>
| 49> #Run DFT-D3 single point of the particle with dimer basis set
| 50> $new_job
| 51> %base "19-96_DFT_B"
| 52> ! wB97X-D3 def2-TZVP TIGHTSCF CHELPG PMODEL
| 53>
| 54> %scf
| 55> MaxIter 1000
| 56> end
| 57>
| 58> * xyz 0 1
| 59>   C                    : 6.919625             2.237632             2.945838
| 60>   O                    : 7.105568             3.614791             3.004067
| 61>   H                    : 7.927648             3.903414             2.617584
| 62>   H                    : 7.422164             1.719098             3.729250
| 63>   H                    : 5.841692             1.966989             3.041488
| 64>   H                    : 7.318918             1.785904             1.953686
| 65>   C                      5.315387             -0.297143            0.426428
| 66>   O                      5.717560             -1.458479            -0.103729
| 67>   H                      5.962384             -1.971798            0.628430
| 68>   H                      4.974802             0.396697             -0.343488
| 69>   H                      4.468870             -0.382213            1.072119
| 70>   H                      6.177868             0.154605             0.892551
| 71> *
| 72>
| 73>                          ****END OF INPUT****
 Total Charge           Charge          ....    0
 Multiplicity           Mult            ....    1
 Number of Electrons    NEL             ....   36
Dispersion correction           -0.001365089
FINAL SINGLE POINT ENERGY      -231.461441582469
Dispersion correction           -0.000256335
FINAL SINGLE POINT ENERGY      -115.732735804509

CARTESIAN COORDINATES (ANGSTROEM)
---------------------------------
  C      6.919625    2.237632    2.945838
  O      7.105568    3.614791    3.004067
  H      7.927648    3.903414    2.617584
  H      7.422164    1.719098    3.729250
  H      5.841692    1.966989    3.041488
  H      7.318918    1.785904    1.953686
  C      5.315387   -0.297143    0.426428
  O      5.717560   -1.458479   -0.103729
  H      5.962384   -1.971798    0.628430
  H      4.974802    0.396697   -0.343488
  H      4.468870   -0.382213    1.072119
  H      6.177868    0.154605    0.892551

 Multiplicity           Mult            ....    1
 Number of Electrons    NEL             ....   18
 Basis Dimension        Dim             ....  172

ORBITAL ENERGIES
----------------

  NO   OCC          E(Eh)            E(eV)
   0   2.0000     -19.226203      -523.1716
   1   2.0000     -10.300591      -280.2933
   2   2.0000      -1.171083       -31.8668
   3   2.0000      -0.796691       -21.6791
   4   2.0000      -0.626282       -17.0420
   5   2.0000      -0.564408       -15.3583
   6   2.0000      -0.538402       -14.6507
   7   2.0000      -0.426782       -11.6133
   8   2.0000      -0.372275       -10.1301
   9   0.0000       0.084482         2.2989
  10   0.0000       0.121596         3.3088
  11   0.0000       0.152239         4.1426
  12   0.0000       0.177577         4.8321
  13   0.0000       0.184505         5.0206

MULLIKEN ATOMIC CHARGES
-----------------------
   0 C :   -0.001446
   1 O :   -0.000041
   2 H :   -0.000017
   3 H :   -0.000146
   4 H :   -0.000273
   5 H :   -0.001439
   6 C :   -0.154317
   7 O :   -0.447089
   8 H :    0.311874
   9 H :    0.105704
  10 H :    0.092979
  11 H :    0.094211
Sum of atomic charges:   -0.0000000

LOEWDIN ATOMIC CHARGES
----------------------
   0 C :   -0.006277
   1 O :   -0.000024
   2 H :   -0.000004
   3 H :   -0.000111
   4 H :   -0.001173
   5 H :   -0.006448
   6 C :   -0.438713
   7 O :   -0.000769
   8 H :    0.157709
   9 H :    0.109165
  10 H :    0.087994
  11 H :    0.098652

  Mayer bond orders larger than 0.1
B(  6-C ,  7-O ) :   1.0036 B(  6-C ,  9-H ) :   0.9687 B(  6-C , 10-H ) :   0.9754
B(  6-C , 11-H ) :   0.9951 B(  7-O ,  8-H ) :   0.9060

Dispersion correction           -0.000186933
FINAL SINGLE POINT ENERGY      -115.728483042698

DIPOLE MOMENT
-------------
                                X             Y             Z
Electronic contribution:      0.49179      -1.58643      -0.80338
Nuclear contribution   :     -0.48637       1.66410       1.43528
                        -----------------------------------------
Total Dipole Moment    :      0.00543       0.07768       0.63190
                        -----------------------------------------
Magnitude (a.u.)       :      0.63668
Magnitude (Debye)      :      1.61832

Rotational constants in cm-1:     4.434631     0.915798     0.889335
Rotational constants in MHz : 132946.892384 27454.929673 26661.584814

                             ****ORCA TERMINATED NORMALLY****
TOTAL RUN TIME: 0 days 0 hours 0 minutes 53 seconds 155 msec
