                         Program Version 4.1.2  - RELEASE  -
|  1> #Run DFT-D3 single point of the dimer
|  2> ! wB97X-D3 def2-TZVP TIGHTSCF CHELPG PMODEL PAL8
|  3>
|  4> %base "7-135_DFT_AB"
|  5>
|  6> %scf
|  7> MaxIter 1000
|  8> end
|  9>
| 10> * xyz 0 1
| 11>   C                      6.456207             -9.635121            -3.002352
| 12>   O                      5.313552             -8.929165            -2.542253
| 13>   H                      4.539224             -9.296089            -2.995425
| 14>   H                      6.621316             -9.549502            -4.115482
| 15>   H                      7.368162             -9.420814            -2.398574
| 16>   H                      6.249894             -10.692458           -2.982951
| 17>   C                      5.627587             -5.136580            -1.247418
| 18>   O                      6.519670             -6.103623            -1.501182
| 19>   H                      6.057094             -6.978844            -1.618841
| 20>   H                      5.181491             -4.714285            -2.195256
| 21>   H                      4.847782             -5.517657            -0.580158
| 22>   H                      6.143805             -4.348762            -0.702577
| 23> *
| 24>
| 25> #Run DFT-D3 single point of the molecule with dimer basis set
| 26> $new_job
| 27> %base "7-135_DFT_A"
| 28> ! wB97X-D3 def2-TZVP TIGHTSCF CHELPG PMODEL
| 29>
| 30> %scf
| 31> MaxIter 1000
| 32> end
| 33>
| 34> * xyz 0 1
| 35>   C                      6.456207             -9.635121            -3.002352
| 36>   O                      5.313552             -8.929165            -2.542253
| 37>   H                      4.539224             -9.296089            -2.995425
| 38>   H                      6.621316             -9.549502            -4.115482
| 39>   H                      7.368162             -9.420814            -2.398574
| 40>   H                      6.249894             -10.692458           -2.982951
| 41>   C                    : 5.627587             -5.136580            -1.247418
| 42>   O                    : 6.519670             -6.103623            -1.501182
| 43>   H                    : 6.057094             -6.978844            -1.618841
| 44>   H                    : 5.181491             -4.714285            -2.195256
| 45>   H                    : 4.847782             -5.517657            -0.580158
| 46>   H                    : 6.143805             -4.348762            -0.702577
| 47> *
| 48>
| 49> #Run DFT-D3 single point of the particle with dimer basis set
| 50> $new_job
| 51> %base "7-135_DFT_B"
| 52> ! wB97X-D3 def2-TZVP TIGHTSCF CHELPG PMODEL
| 53>
| 54> %scf
| 55> MaxIter 1000
| 56> end
| 57>
| 58> * xyz 0 1
| 59>   C                    : 6.456207             -9.635121            -3.002352
| 60>   O                    : 5.313552             -8.929165            -2.542253
| 61>   H                    : 4.539224             -9.296089            -2.995425
| 62>   H                    : 6.621316             -9.549502            -4.115482
| 63>   H                    : 7.368162             -9.420814            -2.398574
| 64>   H                    : 6.249894             -10.692458           -2.982951
| 65>   C                      5.627587             -5.136580            -1.247418
| 66>   O                      6.519670             -6.103623            -1.501182
| 67>   H                      6.057094             -6.978844            -1.618841
| 68>   H                      5.181491             -4.714285            -2.195256
| 69>   H                      4.847782             -5.517657            -0.580158
| 70>   H                      6.143805             -4.348762            -0.702577
| 71> *
| 72>
| 73>                          ****END OF INPUT****
 Total Charge           Charge          ....    0
 Multiplicity           Mult            ....    1
 Number of Electrons    NEL             ....   36
Dispersion correction           -0.001439083
FINAL SINGLE POINT ENERGY      -231.468890772764
Dispersion correction           -0.000242611
FINAL SINGLE POINT ENERGY      -115.730898599876

CARTESIAN COORDINATES (ANGSTROEM)
---------------------------------
  C      6.456207   -9.635121   -3.002352
  O      5.313552   -8.929165   -2.542253
  H      4.539224   -9.296089   -2.995425
  H      6.621316   -9.549502   -4.115482
  H      7.368162   -9.420814   -2.398574
  H      6.249894  -10.692458   -2.982951
  C      5.627587   -5.136580   -1.247418
  O      6.519670   -6.103623   -1.501182
  H      6.057094   -6.978844   -1.618841
  H      5.181491   -4.714285   -2.195256
  H      4.847782   -5.517657   -0.580158
  H      6.143805   -4.348762   -0.702577

 Multiplicity           Mult            ....    1
 Number of Electrons    NEL             ....   18
 Basis Dimension        Dim             ....  172

ORBITAL ENERGIES
----------------

  NO   OCC          E(Eh)            E(eV)
   0   2.0000     -19.231362      -523.3120
   1   2.0000     -10.308659      -280.5129
   2   2.0000      -1.154300       -31.4101
   3   2.0000      -0.786711       -21.4075
   4   2.0000      -0.619362       -16.8537
   5   2.0000      -0.550535       -14.9808
   6   2.0000      -0.536732       -14.6052
   7   2.0000      -0.421705       -11.4752
   8   2.0000      -0.367646       -10.0042
   9   0.0000       0.071132         1.9356
  10   0.0000       0.123934         3.3724
  11   0.0000       0.156085         4.2473
  12   0.0000       0.163656         4.4533
  13   0.0000       0.197008         5.3609

MULLIKEN ATOMIC CHARGES
-----------------------
   0 C :   -0.002927
   1 O :    0.000197
   2 H :    0.000036
   3 H :    0.000265
   4 H :    0.000129
   5 H :    0.000068
   6 C :   -0.142485
   7 O :   -0.457909
   8 H :    0.318629
   9 H :    0.080686
  10 H :    0.093089
  11 H :    0.110223
Sum of atomic charges:   -0.0000000

LOEWDIN ATOMIC CHARGES
----------------------
   0 C :   -0.003398
   1 O :   -0.008343
   2 H :   -0.000398
   3 H :   -0.000051
   4 H :   -0.000463
   5 H :   -0.000065
   6 C :   -0.448150
   7 O :   -0.033373
   8 H :    0.200291
   9 H :    0.095278
  10 H :    0.093010
  11 H :    0.105663

  Mayer bond orders larger than 0.1
B(  6-C ,  7-O ) :   1.0132 B(  6-C ,  9-H ) :   0.9700 B(  6-C , 10-H ) :   0.9894
B(  6-C , 11-H ) :   0.9734 B(  7-O ,  8-H ) :   0.8912

Dispersion correction           -0.000219529
FINAL SINGLE POINT ENERGY      -115.730716481911

DIPOLE MOMENT
-------------
                                X             Y             Z
Electronic contribution:      1.30517      -1.20233      -0.33477
Nuclear contribution   :     -1.89461       0.97436       0.38578
                        -----------------------------------------
Total Dipole Moment    :     -0.58943      -0.22797       0.05102
                        -----------------------------------------
Magnitude (a.u.)       :      0.63404
Magnitude (Debye)      :      1.61160

Rotational constants in cm-1:     4.156455     0.902258     0.873616
Rotational constants in MHz : 124607.383867 27049.028715 26190.356694

                             ****ORCA TERMINATED NORMALLY****
TOTAL RUN TIME: 0 days 0 hours 1 minutes 0 seconds 354 msec
