                         Program Version 4.1.2  - RELEASE  -
|  1> #Run DFT-D3 single point of the dimer
|  2> ! wB97X-D3 def2-TZVP TIGHTSCF CHELPG PMODEL PAL8
|  3>
|  4> %base "8-38_DFT_AB"
|  5>
|  6> %scf
|  7> MaxIter 1000
|  8> end
|  9>
| 10> * xyz 0 1
| 11>   C                      -5.732268            -10.125279           -1.351968
| 12>   O                      -6.836174            -9.413016            -0.708576
| 13>   H                      -7.613012            -9.982425            -0.455737
| 14>   H                      -4.905482            -9.401689            -1.548393
| 15>   H                      -5.473831            -11.022509           -0.746062
| 16>   H                      -6.049753            -10.514197           -2.342592
| 17>   C                      -2.293713            -8.881930            0.250787
| 18>   O                      -1.068833            -8.238405            0.185196
| 19>   H                      -0.646330            -8.471846            -0.718595
| 20>   H                      -2.184696            -9.919336            0.150728
| 21>   H                      -2.724398            -8.545962            1.216586
| 22>   H                      -2.990550            -8.492704            -0.545659
| 23> *
| 24>
| 25> #Run DFT-D3 single point of the molecule with dimer basis set
| 26> $new_job
| 27> %base "8-38_DFT_A"
| 28> ! wB97X-D3 def2-TZVP TIGHTSCF CHELPG PMODEL
| 29>
| 30> %scf
| 31> MaxIter 1000
| 32> end
| 33>
| 34> * xyz 0 1
| 35>   C                      -5.732268            -10.125279           -1.351968
| 36>   O                      -6.836174            -9.413016            -0.708576
| 37>   H                      -7.613012            -9.982425            -0.455737
| 38>   H                      -4.905482            -9.401689            -1.548393
| 39>   H                      -5.473831            -11.022509           -0.746062
| 40>   H                      -6.049753            -10.514197           -2.342592
| 41>   C                    : -2.293713            -8.881930            0.250787
| 42>   O                    : -1.068833            -8.238405            0.185196
| 43>   H                    : -0.646330            -8.471846            -0.718595
| 44>   H                    : -2.184696            -9.919336            0.150728
| 45>   H                    : -2.724398            -8.545962            1.216586
| 46>   H                    : -2.990550            -8.492704            -0.545659
| 47> *
| 48>
| 49> #Run DFT-D3 single point of the particle with dimer basis set
| 50> $new_job
| 51> %base "8-38_DFT_B"
| 52> ! wB97X-D3 def2-TZVP TIGHTSCF CHELPG PMODEL
| 53>
| 54> %scf
| 55> MaxIter 1000
| 56> end
| 57>
| 58> * xyz 0 1
| 59>   C                    : -5.732268            -10.125279           -1.351968
| 60>   O                    : -6.836174            -9.413016            -0.708576
| 61>   H                    : -7.613012            -9.982425            -0.455737
| 62>   H                    : -4.905482            -9.401689            -1.548393
| 63>   H                    : -5.473831            -11.022509           -0.746062
| 64>   H                    : -6.049753            -10.514197           -2.342592
| 65>   C                      -2.293713            -8.881930            0.250787
| 66>   O                      -1.068833            -8.238405            0.185196
| 67>   H                      -0.646330            -8.471846            -0.718595
| 68>   H                      -2.184696            -9.919336            0.150728
| 69>   H                      -2.724398            -8.545962            1.216586
| 70>   H                      -2.990550            -8.492704            -0.545659
| 71> *
| 72>
| 73>                          ****END OF INPUT****
 Total Charge           Charge          ....    0
 Multiplicity           Mult            ....    1
 Number of Electrons    NEL             ....   36
Dispersion correction           -0.001328931
FINAL SINGLE POINT ENERGY      -231.460398301470
Dispersion correction           -0.000279408
FINAL SINGLE POINT ENERGY      -115.730353407314

CARTESIAN COORDINATES (ANGSTROEM)
---------------------------------
  C     -5.732268  -10.125279   -1.351968
  O     -6.836174   -9.413016   -0.708576
  H     -7.613012   -9.982425   -0.455737
  H     -4.905482   -9.401689   -1.548393
  H     -5.473831  -11.022509   -0.746062
  H     -6.049753  -10.514197   -2.342592
  C     -2.293713   -8.881930    0.250787
  O     -1.068833   -8.238405    0.185196
  H     -0.646330   -8.471846   -0.718595
  H     -2.184696   -9.919336    0.150728
  H     -2.724398   -8.545962    1.216586
  H     -2.990550   -8.492704   -0.545659

 Multiplicity           Mult            ....    1
 Number of Electrons    NEL             ....   18
 Basis Dimension        Dim             ....  172

ORBITAL ENERGIES
----------------

  NO   OCC          E(Eh)            E(eV)
   0   2.0000     -19.233177      -523.3614
   1   2.0000     -10.309455      -280.5345
   2   2.0000      -1.134589       -30.8737
   3   2.0000      -0.786141       -21.3920
   4   2.0000      -0.610956       -16.6250
   5   2.0000      -0.548694       -14.9307
   6   2.0000      -0.521858       -14.2005
   7   2.0000      -0.430008       -11.7011
   8   2.0000      -0.369283       -10.0487
   9   0.0000       0.083865         2.2821
  10   0.0000       0.107105         2.9145
  11   0.0000       0.149632         4.0717
  12   0.0000       0.172317         4.6890
  13   0.0000       0.178657         4.8615

MULLIKEN ATOMIC CHARGES
-----------------------
   0 C :    0.001986
   1 O :    0.000006
   2 H :    0.000003
   3 H :   -0.005169
   4 H :   -0.000020
   5 H :   -0.000175
   6 C :   -0.148346
   7 O :   -0.475434
   8 H :    0.313641
   9 H :    0.107127
  10 H :    0.112852
  11 H :    0.093529
Sum of atomic charges:   -0.0000000

LOEWDIN ATOMIC CHARGES
----------------------
   0 C :   -0.002739
   1 O :   -0.000008
   2 H :   -0.000001
   3 H :   -0.006386
   4 H :   -0.000140
   5 H :   -0.000019
   6 C :   -0.410526
   7 O :   -0.083456
   8 H :    0.203792
   9 H :    0.083436
  10 H :    0.114530
  11 H :    0.101518

  Mayer bond orders larger than 0.1
B(  6-C ,  7-O ) :   0.9990 B(  6-C ,  9-H ) :   0.9747 B(  6-C , 10-H ) :   0.9686
B(  6-C , 11-H ) :   0.9819 B(  7-O ,  8-H ) :   0.8911

Dispersion correction           -0.000220715
FINAL SINGLE POINT ENERGY      -115.729758638009

DIPOLE MOMENT
-------------
                                X             Y             Z
Electronic contribution:      1.58118       0.73476       0.10065
Nuclear contribution   :     -1.77062      -1.12084      -0.61535
                        -----------------------------------------
Total Dipole Moment    :     -0.18944      -0.38608      -0.51469
                        -----------------------------------------
Magnitude (a.u.)       :      0.67071
Magnitude (Debye)      :      1.70480

Rotational constants in cm-1:     4.085983     0.869357     0.829865
Rotational constants in MHz : 122494.684336 26062.677609 24878.732183

                             ****ORCA TERMINATED NORMALLY****
TOTAL RUN TIME: 0 days 0 hours 0 minutes 43 seconds 566 msec
