                         Program Version 4.1.2  - RELEASE  -
|  1> #Run DFT-D3 single point of the dimer
|  2> ! wB97X-D3 def2-TZVP TIGHTSCF CHELPG PMODEL PAL8
|  3>
|  4> %base "21-177_DFT_AB"
|  5>
|  6> %scf
|  7> MaxIter 1000
|  8> end
|  9>
| 10> * xyz 0 1
| 11>   C                      3.778419             -6.836867            5.976768
| 12>   O                      3.260152             -7.910621            6.743378
| 13>   H                      2.329258             -7.973401            6.412275
| 14>   H                      4.083998             -7.327440            5.026746
| 15>   H                      3.114401             -6.098995            5.565235
| 16>   H                      4.744098             -6.458797            6.368110
| 17>   C                      -0.144222            -6.388239            7.109689
| 18>   O                      0.615973             -6.573767            5.942439
| 19>   H                      0.207923             -7.303028            5.449768
| 20>   H                      0.185809             -5.543396            7.793913
| 21>   H                      -1.164782            -6.128827            6.762129
| 22>   H                      -0.143347            -7.286734            7.691108
| 23> *
| 24>
| 25> #Run DFT-D3 single point of the molecule with dimer basis set
| 26> $new_job
| 27> %base "21-177_DFT_A"
| 28> ! wB97X-D3 def2-TZVP TIGHTSCF CHELPG PMODEL
| 29>
| 30> %scf
| 31> MaxIter 1000
| 32> end
| 33>
| 34> * xyz 0 1
| 35>   C                      3.778419             -6.836867            5.976768
| 36>   O                      3.260152             -7.910621            6.743378
| 37>   H                      2.329258             -7.973401            6.412275
| 38>   H                      4.083998             -7.327440            5.026746
| 39>   H                      3.114401             -6.098995            5.565235
| 40>   H                      4.744098             -6.458797            6.368110
| 41>   C                    : -0.144222            -6.388239            7.109689
| 42>   O                    : 0.615973             -6.573767            5.942439
| 43>   H                    : 0.207923             -7.303028            5.449768
| 44>   H                    : 0.185809             -5.543396            7.793913
| 45>   H                    : -1.164782            -6.128827            6.762129
| 46>   H                    : -0.143347            -7.286734            7.691108
| 47> *
| 48>
| 49> #Run DFT-D3 single point of the particle with dimer basis set
| 50> $new_job
| 51> %base "21-177_DFT_B"
| 52> ! wB97X-D3 def2-TZVP TIGHTSCF CHELPG PMODEL
| 53>
| 54> %scf
| 55> MaxIter 1000
| 56> end
| 57>
| 58> * xyz 0 1
| 59>   C                    : 3.778419             -6.836867            5.976768
| 60>   O                    : 3.260152             -7.910621            6.743378
| 61>   H                    : 2.329258             -7.973401            6.412275
| 62>   H                    : 4.083998             -7.327440            5.026746
| 63>   H                    : 3.114401             -6.098995            5.565235
| 64>   H                    : 4.744098             -6.458797            6.368110
| 65>   C                      -0.144222            -6.388239            7.109689
| 66>   O                      0.615973             -6.573767            5.942439
| 67>   H                      0.207923             -7.303028            5.449768
| 68>   H                      0.185809             -5.543396            7.793913
| 69>   H                      -1.164782            -6.128827            6.762129
| 70>   H                      -0.143347            -7.286734            7.691108
| 71> *
| 72>
| 73>                          ****END OF INPUT****
 Total Charge           Charge          ....    0
 Multiplicity           Mult            ....    1
 Number of Electrons    NEL             ....   36
Dispersion correction           -0.002000343
FINAL SINGLE POINT ENERGY      -231.461986364888
Dispersion correction           -0.000233079
FINAL SINGLE POINT ENERGY      -115.724343660940

CARTESIAN COORDINATES (ANGSTROEM)
---------------------------------
  C      3.778419   -6.836867    5.976768
  O      3.260152   -7.910621    6.743378
  H      2.329258   -7.973401    6.412275
  H      4.083998   -7.327440    5.026746
  H      3.114401   -6.098995    5.565235
  H      4.744098   -6.458797    6.368110
  C     -0.144222   -6.388239    7.109689
  O      0.615973   -6.573767    5.942439
  H      0.207923   -7.303028    5.449768
  H      0.185809   -5.543396    7.793913
  H     -1.164782   -6.128827    6.762129
  H     -0.143347   -7.286734    7.691108

 Multiplicity           Mult            ....    1
 Number of Electrons    NEL             ....   18
 Basis Dimension        Dim             ....  172

ORBITAL ENERGIES
----------------

  NO   OCC          E(Eh)            E(eV)
   0   2.0000     -19.230458      -523.2874
   1   2.0000     -10.316597      -280.7289
   2   2.0000      -1.138377       -30.9768
   3   2.0000      -0.790734       -21.5170
   4   2.0000      -0.608347       -16.5540
   5   2.0000      -0.549603       -14.9555
   6   2.0000      -0.529795       -14.4165
   7   2.0000      -0.426983       -11.6188
   8   2.0000      -0.371900       -10.1199
   9   0.0000       0.097664         2.6576
  10   0.0000       0.127729         3.4757
  11   0.0000       0.151498         4.1225
  12   0.0000       0.182140         4.9563
  13   0.0000       0.198076         5.3899

MULLIKEN ATOMIC CHARGES
-----------------------
   0 C :    0.012776
   1 O :    0.001905
   2 H :   -0.021372
   3 H :   -0.001618
   4 H :   -0.010156
   5 H :    0.000044
   6 C :   -0.166003
   7 O :   -0.462746
   8 H :    0.317703
   9 H :    0.120133
  10 H :    0.099646
  11 H :    0.109689
Sum of atomic charges:   -0.0000000

LOEWDIN ATOMIC CHARGES
----------------------
   0 C :   -0.012116
   1 O :   -0.003010
   2 H :   -0.021840
   3 H :   -0.000272
   4 H :   -0.009277
   5 H :   -0.000108
   6 C :   -0.394512
   7 O :   -0.044028
   8 H :    0.179060
   9 H :    0.117257
  10 H :    0.099179
  11 H :    0.089666

  Mayer bond orders larger than 0.1
B(  6-C ,  7-O ) :   0.9806 B(  6-C ,  9-H ) :   0.9694 B(  6-C , 10-H ) :   0.9842
B(  6-C , 11-H ) :   0.9760 B(  7-O ,  8-H ) :   0.8926

Dispersion correction           -0.000224133
FINAL SINGLE POINT ENERGY      -115.732195341739

DIPOLE MOMENT
-------------
                                X             Y             Z
Electronic contribution:      1.12613      -0.14261      -1.41197
Nuclear contribution   :     -1.69545      -0.23490       1.57047
                        -----------------------------------------
Total Dipole Moment    :     -0.56932      -0.37751       0.15850
                        -----------------------------------------
Magnitude (a.u.)       :      0.70125
Magnitude (Debye)      :      1.78244

Rotational constants in cm-1:     4.229175     0.837535     0.808875
Rotational constants in MHz : 126787.466195 25108.670449 24249.453224

                             ****ORCA TERMINATED NORMALLY****
TOTAL RUN TIME: 0 days 0 hours 1 minutes 8 seconds 329 msec
