                         Program Version 4.1.2  - RELEASE  -
|  1> #Run DFT-D3 single point of the dimer
|  2> ! wB97X-D3 def2-TZVP TIGHTSCF CHELPG PMODEL PAL8
|  3>
|  4> %base "22-132_DFT_AB"
|  5>
|  6> %scf
|  7> MaxIter 1000
|  8> end
|  9>
| 10> * xyz 0 1
| 11>   C                      -9.854973            0.199510             8.305999
| 12>   O                      -11.049584           0.926030             8.206621
| 13>   H                      -11.210911           1.208514             7.307771
| 14>   H                      -9.345512            0.270205             9.273094
| 15>   H                      -9.925177            -0.857745            8.073375
| 16>   H                      -9.164374            0.696290             7.560316
| 17>   C                      -9.694267            -2.353438            5.047884
| 18>   O                      -11.042801           -2.020181            4.738113
| 19>   H                      -11.458258           -2.606557            4.042506
| 20>   H                      -8.969229            -1.686750            4.561023
| 21>   H                      -9.428216            -2.301166            6.120822
| 22>   H                      -9.375973            -3.376619            4.700290
| 23> *
| 24>
| 25> #Run DFT-D3 single point of the molecule with dimer basis set
| 26> $new_job
| 27> %base "22-132_DFT_A"
| 28> ! wB97X-D3 def2-TZVP TIGHTSCF CHELPG PMODEL
| 29>
| 30> %scf
| 31> MaxIter 1000
| 32> end
| 33>
| 34> * xyz 0 1
| 35>   C                      -9.854973            0.199510             8.305999
| 36>   O                      -11.049584           0.926030             8.206621
| 37>   H                      -11.210911           1.208514             7.307771
| 38>   H                      -9.345512            0.270205             9.273094
| 39>   H                      -9.925177            -0.857745            8.073375
| 40>   H                      -9.164374            0.696290             7.560316
| 41>   C                    : -9.694267            -2.353438            5.047884
| 42>   O                    : -11.042801           -2.020181            4.738113
| 43>   H                    : -11.458258           -2.606557            4.042506
| 44>   H                    : -8.969229            -1.686750            4.561023
| 45>   H                    : -9.428216            -2.301166            6.120822
| 46>   H                    : -9.375973            -3.376619            4.700290
| 47> *
| 48>
| 49> #Run DFT-D3 single point of the particle with dimer basis set
| 50> $new_job
| 51> %base "22-132_DFT_B"
| 52> ! wB97X-D3 def2-TZVP TIGHTSCF CHELPG PMODEL
| 53>
| 54> %scf
| 55> MaxIter 1000
| 56> end
| 57>
| 58> * xyz 0 1
| 59>   C                    : -9.854973            0.199510             8.305999
| 60>   O                    : -11.049584           0.926030             8.206621
| 61>   H                    : -11.210911           1.208514             7.307771
| 62>   H                    : -9.345512            0.270205             9.273094
| 63>   H                    : -9.925177            -0.857745            8.073375
| 64>   H                    : -9.164374            0.696290             7.560316
| 65>   C                      -9.694267            -2.353438            5.047884
| 66>   O                      -11.042801           -2.020181            4.738113
| 67>   H                      -11.458258           -2.606557            4.042506
| 68>   H                      -8.969229            -1.686750            4.561023
| 69>   H                      -9.428216            -2.301166            6.120822
| 70>   H                      -9.375973            -3.376619            4.700290
| 71> *
| 72>
| 73>                          ****END OF INPUT****
 Total Charge           Charge          ....    0
 Multiplicity           Mult            ....    1
 Number of Electrons    NEL             ....   36
Dispersion correction           -0.001409833
FINAL SINGLE POINT ENERGY      -231.463145836596
Dispersion correction           -0.000244994
FINAL SINGLE POINT ENERGY      -115.731618642380

CARTESIAN COORDINATES (ANGSTROEM)
---------------------------------
  C     -9.854973    0.199510    8.305999
  O    -11.049584    0.926030    8.206621
  H    -11.210911    1.208514    7.307771
  H     -9.345512    0.270205    9.273094
  H     -9.925177   -0.857745    8.073375
  H     -9.164374    0.696290    7.560316
  C     -9.694267   -2.353438    5.047884
  O    -11.042801   -2.020181    4.738113
  H    -11.458258   -2.606557    4.042506
  H     -8.969229   -1.686750    4.561023
  H     -9.428216   -2.301166    6.120822
  H     -9.375973   -3.376619    4.700290

 Multiplicity           Mult            ....    1
 Number of Electrons    NEL             ....   18
 Basis Dimension        Dim             ....  172

ORBITAL ENERGIES
----------------

  NO   OCC          E(Eh)            E(eV)
   0   2.0000     -19.235441      -523.4229
   1   2.0000     -10.319792      -280.8158
   2   2.0000      -1.123848       -30.5815
   3   2.0000      -0.793379       -21.5889
   4   2.0000      -0.608674       -16.5629
   5   2.0000      -0.530220       -14.4280
   6   2.0000      -0.526675       -14.3316
   7   2.0000      -0.425558       -11.5800
   8   2.0000      -0.372401       -10.1335
   9   0.0000       0.091343         2.4856
  10   0.0000       0.113105         3.0777
  11   0.0000       0.146470         3.9857
  12   0.0000       0.173305         4.7159
  13   0.0000       0.190996         5.1973

MULLIKEN ATOMIC CHARGES
-----------------------
   0 C :   -0.000246
   1 O :   -0.000065
   2 H :   -0.000325
   3 H :    0.000204
   4 H :    0.002491
   5 H :   -0.000384
   6 C :   -0.165421
   7 O :   -0.487384
   8 H :    0.326561
   9 H :    0.105540
  10 H :    0.116749
  11 H :    0.102280
Sum of atomic charges:   -0.0000000

LOEWDIN ATOMIC CHARGES
----------------------
   0 C :   -0.001702
   1 O :   -0.000033
   2 H :   -0.000175
   3 H :   -0.000004
   4 H :   -0.002758
   5 H :   -0.000168
   6 C :   -0.391025
   7 O :   -0.101266
   8 H :    0.193181
   9 H :    0.096283
  10 H :    0.107191
  11 H :    0.100474

  Mayer bond orders larger than 0.1
B(  6-C ,  7-O ) :   1.0113 B(  6-C ,  9-H ) :   0.9773 B(  6-C , 10-H ) :   0.9702
B(  6-C , 11-H ) :   0.9794 B(  7-O ,  8-H ) :   0.8848

Dispersion correction           -0.000288383
FINAL SINGLE POINT ENERGY      -115.730336627209

DIPOLE MOMENT
-------------
                                X             Y             Z
Electronic contribution:     -1.86729       0.55414      -0.27858
Nuclear contribution   :      2.14424      -1.07881      -0.05044
                        -----------------------------------------
Total Dipole Moment    :      0.27696      -0.52467      -0.32903
                        -----------------------------------------
Magnitude (a.u.)       :      0.67841
Magnitude (Debye)      :      1.72438

Rotational constants in cm-1:     4.366643     0.798352     0.767380
Rotational constants in MHz : 130908.655580 23933.991493 23005.464136

                             ****ORCA TERMINATED NORMALLY****
TOTAL RUN TIME: 0 days 0 hours 1 minutes 5 seconds 121 msec
