                         Program Version 4.1.2  - RELEASE  -
|  1> #Run DFT-D3 single point of the dimer
|  2> ! wB97X-D3 def2-TZVP TIGHTSCF CHELPG PMODEL PAL8
|  3>
|  4> %base "11-127_DFT_AB"
|  5>
|  6> %scf
|  7> MaxIter 1000
|  8> end
|  9>
| 10> * xyz 0 1
| 11>   C                      0.044626             7.336796             -2.000568
| 12>   O                      0.666804             8.379387             -2.767885
| 13>   H                      1.634866             8.354970             -2.635268
| 14>   H                      0.688306             6.433786             -1.904531
| 15>   H                      -0.210121            7.772745             -1.070785
| 16>   H                      -0.934877            7.018362             -2.489453
| 17>   C                      -1.021915            2.852459             -2.001228
| 18>   O                      -0.952008            4.277122             -1.661741
| 19>   H                      -1.236880            4.719434             -2.465130
| 20>   H                      -0.167043            2.540624             -2.682369
| 21>   H                      -1.096906            2.264152             -1.113842
| 22>   H                      -1.909074            2.582421             -2.660496
| 23> *
| 24>
| 25> #Run DFT-D3 single point of the molecule with dimer basis set
| 26> $new_job
| 27> %base "11-127_DFT_A"
| 28> ! wB97X-D3 def2-TZVP TIGHTSCF CHELPG PMODEL
| 29>
| 30> %scf
| 31> MaxIter 1000
| 32> end
| 33>
| 34> * xyz 0 1
| 35>   C                      0.044626             7.336796             -2.000568
| 36>   O                      0.666804             8.379387             -2.767885
| 37>   H                      1.634866             8.354970             -2.635268
| 38>   H                      0.688306             6.433786             -1.904531
| 39>   H                      -0.210121            7.772745             -1.070785
| 40>   H                      -0.934877            7.018362             -2.489453
| 41>   C                    : -1.021915            2.852459             -2.001228
| 42>   O                    : -0.952008            4.277122             -1.661741
| 43>   H                    : -1.236880            4.719434             -2.465130
| 44>   H                    : -0.167043            2.540624             -2.682369
| 45>   H                    : -1.096906            2.264152             -1.113842
| 46>   H                    : -1.909074            2.582421             -2.660496
| 47> *
| 48>
| 49> #Run DFT-D3 single point of the particle with dimer basis set
| 50> $new_job
| 51> %base "11-127_DFT_B"
| 52> ! wB97X-D3 def2-TZVP TIGHTSCF CHELPG PMODEL
| 53>
| 54> %scf
| 55> MaxIter 1000
| 56> end
| 57>
| 58> * xyz 0 1
| 59>   C                    : 0.044626             7.336796             -2.000568
| 60>   O                    : 0.666804             8.379387             -2.767885
| 61>   H                    : 1.634866             8.354970             -2.635268
| 62>   H                    : 0.688306             6.433786             -1.904531
| 63>   H                    : -0.210121            7.772745             -1.070785
| 64>   H                    : -0.934877            7.018362             -2.489453
| 65>   C                      -1.021915            2.852459             -2.001228
| 66>   O                      -0.952008            4.277122             -1.661741
| 67>   H                      -1.236880            4.719434             -2.465130
| 68>   H                      -0.167043            2.540624             -2.682369
| 69>   H                      -1.096906            2.264152             -1.113842
| 70>   H                      -1.909074            2.582421             -2.660496
| 71> *
| 72>
| 73>                          ****END OF INPUT****
 Total Charge           Charge          ....    0
 Multiplicity           Mult            ....    1
 Number of Electrons    NEL             ....   36
Dispersion correction           -0.001538494
FINAL SINGLE POINT ENERGY      -231.464229343842
Dispersion correction           -0.000254087
FINAL SINGLE POINT ENERGY      -115.732209000380

CARTESIAN COORDINATES (ANGSTROEM)
---------------------------------
  C      0.044626    7.336796   -2.000568
  O      0.666804    8.379387   -2.767885
  H      1.634866    8.354970   -2.635268
  H      0.688306    6.433786   -1.904531
  H     -0.210121    7.772745   -1.070785
  H     -0.934877    7.018362   -2.489453
  C     -1.021915    2.852459   -2.001228
  O     -0.952008    4.277122   -1.661741
  H     -1.236880    4.719434   -2.465130
  H     -0.167043    2.540624   -2.682369
  H     -1.096906    2.264152   -1.113842
  H     -1.909074    2.582421   -2.660496

 Multiplicity           Mult            ....    1
 Number of Electrons    NEL             ....   18
 Basis Dimension        Dim             ....  172

ORBITAL ENERGIES
----------------

  NO   OCC          E(Eh)            E(eV)
   0   2.0000     -19.235334      -523.4200
   1   2.0000     -10.325323      -280.9663
   2   2.0000      -1.125732       -30.6327
   3   2.0000      -0.793691       -21.5974
   4   2.0000      -0.604307       -16.4440
   5   2.0000      -0.534539       -14.5455
   6   2.0000      -0.514639       -14.0040
   7   2.0000      -0.447165       -12.1680
   8   2.0000      -0.374960       -10.2032
   9   0.0000       0.087996         2.3945
  10   0.0000       0.122121         3.3231
  11   0.0000       0.145765         3.9665
  12   0.0000       0.183827         5.0022
  13   0.0000       0.189289         5.1508

MULLIKEN ATOMIC CHARGES
-----------------------
   0 C :    0.001112
   1 O :    0.000025
   2 H :    0.000006
   3 H :   -0.007643
   4 H :   -0.001030
   5 H :   -0.001168
   6 C :   -0.205356
   7 O :   -0.459604
   8 H :    0.317776
   9 H :    0.111015
  10 H :    0.134723
  11 H :    0.110144
Sum of atomic charges:   -0.0000000

LOEWDIN ATOMIC CHARGES
----------------------
   0 C :   -0.010493
   1 O :   -0.000054
   2 H :   -0.000009
   3 H :   -0.007231
   4 H :   -0.000248
   5 H :   -0.003036
   6 C :   -0.360696
   7 O :   -0.096804
   8 H :    0.170669
   9 H :    0.103678
  10 H :    0.101092
  11 H :    0.103132

  Mayer bond orders larger than 0.1
B(  6-C ,  7-O ) :   0.9984 B(  6-C ,  9-H ) :   0.9675 B(  6-C , 10-H ) :   0.9727
B(  6-C , 11-H ) :   0.9731 B(  7-O ,  8-H ) :   0.8994

Dispersion correction           -0.000271257
FINAL SINGLE POINT ENERGY      -115.730873390124

DIPOLE MOMENT
-------------
                                X             Y             Z
Electronic contribution:      0.16120       1.76471       0.75407
Nuclear contribution   :     -0.39460      -2.08782      -1.38517
                        -----------------------------------------
Total Dipole Moment    :     -0.23340      -0.32310      -0.63111
                        -----------------------------------------
Magnitude (a.u.)       :      0.74644
Magnitude (Debye)      :      1.89729

Rotational constants in cm-1:     4.167162     0.781159     0.750421
Rotational constants in MHz : 124928.383261 23418.564263 22497.049094

                             ****ORCA TERMINATED NORMALLY****
TOTAL RUN TIME: 0 days 0 hours 1 minutes 14 seconds 607 msec
