                         Program Version 4.1.2  - RELEASE  -
|  1> #Run DFT-D3 single point of the dimer
|  2> ! wB97X-D3 def2-TZVP TIGHTSCF CHELPG PMODEL PAL8
|  3>
|  4> %base "19-222_DFT_AB"
|  5>
|  6> %scf
|  7> MaxIter 1000
|  8> end
|  9>
| 10> * xyz 0 1
| 11>   C                      0.438339             -6.342064            -3.795153
| 12>   O                      0.295904             -4.919318            -3.776308
| 13>   H                      -0.644205            -4.755559            -3.947735
| 14>   H                      0.092764             -6.864128            -2.859132
| 15>   H                      -0.227476            -6.734490            -4.555237
| 16>   H                      1.460221             -6.717462            -3.842822
| 17>   C                      0.715508             -2.291758            -1.293199
| 18>   O                      0.736356             -3.692526            -1.065208
| 19>   H                      0.790371             -4.080081            -1.958419
| 20>   H                      -0.322157            -1.906531            -1.383476
| 21>   H                      1.246325             -1.660204            -0.495292
| 22>   H                      1.255767             -2.112469            -2.288737
| 23> *
| 24>
| 25> #Run DFT-D3 single point of the molecule with dimer basis set
| 26> $new_job
| 27> %base "19-222_DFT_A"
| 28> ! wB97X-D3 def2-TZVP TIGHTSCF CHELPG PMODEL
| 29>
| 30> %scf
| 31> MaxIter 1000
| 32> end
| 33>
| 34> * xyz 0 1
| 35>   C                      0.438339             -6.342064            -3.795153
| 36>   O                      0.295904             -4.919318            -3.776308
| 37>   H                      -0.644205            -4.755559            -3.947735
| 38>   H                      0.092764             -6.864128            -2.859132
| 39>   H                      -0.227476            -6.734490            -4.555237
| 40>   H                      1.460221             -6.717462            -3.842822
| 41>   C                    : 0.715508             -2.291758            -1.293199
| 42>   O                    : 0.736356             -3.692526            -1.065208
| 43>   H                    : 0.790371             -4.080081            -1.958419
| 44>   H                    : -0.322157            -1.906531            -1.383476
| 45>   H                    : 1.246325             -1.660204            -0.495292
| 46>   H                    : 1.255767             -2.112469            -2.288737
| 47> *
| 48>
| 49> #Run DFT-D3 single point of the particle with dimer basis set
| 50> $new_job
| 51> %base "19-222_DFT_B"
| 52> ! wB97X-D3 def2-TZVP TIGHTSCF CHELPG PMODEL
| 53>
| 54> %scf
| 55> MaxIter 1000
| 56> end
| 57>
| 58> * xyz 0 1
| 59>   C                    : 0.438339             -6.342064            -3.795153
| 60>   O                    : 0.295904             -4.919318            -3.776308
| 61>   H                    : -0.644205            -4.755559            -3.947735
| 62>   H                    : 0.092764             -6.864128            -2.859132
| 63>   H                    : -0.227476            -6.734490            -4.555237
| 64>   H                    : 1.460221             -6.717462            -3.842822
| 65>   C                      0.715508             -2.291758            -1.293199
| 66>   O                      0.736356             -3.692526            -1.065208
| 67>   H                      0.790371             -4.080081            -1.958419
| 68>   H                      -0.322157            -1.906531            -1.383476
| 69>   H                      1.246325             -1.660204            -0.495292
| 70>   H                      1.255767             -2.112469            -2.288737
| 71> *
| 72>
| 73>                          ****END OF INPUT****
 Total Charge           Charge          ....    0
 Multiplicity           Mult            ....    1
 Number of Electrons    NEL             ....   36
Dispersion correction           -0.001705871
FINAL SINGLE POINT ENERGY      -231.470175874936
Dispersion correction           -0.000251152
FINAL SINGLE POINT ENERGY      -115.730720703349

CARTESIAN COORDINATES (ANGSTROEM)
---------------------------------
  C      0.438339   -6.342064   -3.795153
  O      0.295904   -4.919318   -3.776308
  H     -0.644205   -4.755559   -3.947735
  H      0.092764   -6.864128   -2.859132
  H     -0.227476   -6.734490   -4.555237
  H      1.460221   -6.717462   -3.842822
  C      0.715508   -2.291758   -1.293199
  O      0.736356   -3.692526   -1.065208
  H      0.790371   -4.080081   -1.958419
  H     -0.322157   -1.906531   -1.383476
  H      1.246325   -1.660204   -0.495292
  H      1.255767   -2.112469   -2.288737

 Multiplicity           Mult            ....    1
 Number of Electrons    NEL             ....   18
 Basis Dimension        Dim             ....  172

ORBITAL ENERGIES
----------------

  NO   OCC          E(Eh)            E(eV)
   0   2.0000     -19.234550      -523.3987
   1   2.0000     -10.327750      -281.0324
   2   2.0000      -1.136120       -30.9154
   3   2.0000      -0.783282       -21.3142
   4   2.0000      -0.606006       -16.4903
   5   2.0000      -0.537635       -14.6298
   6   2.0000      -0.527440       -14.3524
   7   2.0000      -0.429843       -11.6966
   8   2.0000      -0.374076       -10.1791
   9   0.0000       0.069487         1.8908
  10   0.0000       0.122882         3.3438
  11   0.0000       0.151218         4.1149
  12   0.0000       0.164266         4.4699
  13   0.0000       0.187947         5.1143

MULLIKEN ATOMIC CHARGES
-----------------------
   0 C :   -0.000537
   1 O :   -0.002951
   2 H :   -0.000615
   3 H :   -0.000388
   4 H :    0.000092
   5 H :   -0.000100
   6 C :   -0.181259
   7 O :   -0.457423
   8 H :    0.317029
   9 H :    0.107593
  10 H :    0.120125
  11 H :    0.098433
Sum of atomic charges:   -0.0000000

LOEWDIN ATOMIC CHARGES
----------------------
   0 C :   -0.003403
   1 O :   -0.014166
   2 H :   -0.001697
   3 H :   -0.000350
   4 H :   -0.000056
   5 H :   -0.000112
   6 C :   -0.399421
   7 O :   -0.081515
   8 H :    0.187080
   9 H :    0.096383
  10 H :    0.113348
  11 H :    0.103908

  Mayer bond orders larger than 0.1
B(  6-C ,  7-O ) :   1.0006 B(  6-C ,  9-H ) :   0.9672 B(  6-C , 10-H ) :   0.9686
B(  6-C , 11-H ) :   0.9899 B(  7-O ,  8-H ) :   0.9028

Dispersion correction           -0.000252774
FINAL SINGLE POINT ENERGY      -115.730367054365

DIPOLE MOMENT
-------------
                                X             Y             Z
Electronic contribution:     -0.01893      -1.83393       0.56530
Nuclear contribution   :      0.04984       2.12891      -1.20675
                        -----------------------------------------
Total Dipole Moment    :      0.03090       0.29498      -0.64146
                        -----------------------------------------
Magnitude (a.u.)       :      0.70671
Magnitude (Debye)      :      1.79631

Rotational constants in cm-1:     4.021853     0.821448     0.788178
Rotational constants in MHz : 120572.118936 24626.405962 23628.996879

                             ****ORCA TERMINATED NORMALLY****
TOTAL RUN TIME: 0 days 0 hours 0 minutes 50 seconds 404 msec
