                         Program Version 4.1.2  - RELEASE  -
|  1> #Run DFT-D3 single point of the dimer
|  2> ! wB97X-D3 def2-TZVP TIGHTSCF CHELPG PMODEL PAL8
|  3>
|  4> %base "18-160_DFT_AB"
|  5>
|  6> %scf
|  7> MaxIter 1000
|  8> end
|  9>
| 10> * xyz 0 1
| 11>   C                      -5.489523            -3.813304            8.215315
| 12>   O                      -6.739284            -4.407885            8.109298
| 13>   H                      -7.413917            -3.714608            8.024810
| 14>   H                      -4.976029            -3.686453            7.194270
| 15>   H                      -5.521442            -2.886207            8.754006
| 16>   H                      -4.844538            -4.540704            8.737894
| 17>   C                      -8.750132            -3.209529            5.758697
| 18>   O                      -8.636252            -2.800862            7.090331
| 19>   H                      -8.941399            -1.901998            7.252660
| 20>   H                      -8.567142            -2.361493            5.074690
| 21>   H                      -7.992713            -4.009149            5.610206
| 22>   H                      -9.785928            -3.549334            5.647904
| 23> *
| 24>
| 25> #Run DFT-D3 single point of the molecule with dimer basis set
| 26> $new_job
| 27> %base "18-160_DFT_A"
| 28> ! wB97X-D3 def2-TZVP TIGHTSCF CHELPG PMODEL
| 29>
| 30> %scf
| 31> MaxIter 1000
| 32> end
| 33>
| 34> * xyz 0 1
| 35>   C                      -5.489523            -3.813304            8.215315
| 36>   O                      -6.739284            -4.407885            8.109298
| 37>   H                      -7.413917            -3.714608            8.024810
| 38>   H                      -4.976029            -3.686453            7.194270
| 39>   H                      -5.521442            -2.886207            8.754006
| 40>   H                      -4.844538            -4.540704            8.737894
| 41>   C                    : -8.750132            -3.209529            5.758697
| 42>   O                    : -8.636252            -2.800862            7.090331
| 43>   H                    : -8.941399            -1.901998            7.252660
| 44>   H                    : -8.567142            -2.361493            5.074690
| 45>   H                    : -7.992713            -4.009149            5.610206
| 46>   H                    : -9.785928            -3.549334            5.647904
| 47> *
| 48>
| 49> #Run DFT-D3 single point of the particle with dimer basis set
| 50> $new_job
| 51> %base "18-160_DFT_B"
| 52> ! wB97X-D3 def2-TZVP TIGHTSCF CHELPG PMODEL
| 53>
| 54> %scf
| 55> MaxIter 1000
| 56> end
| 57>
| 58> * xyz 0 1
| 59>   C                    : -5.489523            -3.813304            8.215315
| 60>   O                    : -6.739284            -4.407885            8.109298
| 61>   H                    : -7.413917            -3.714608            8.024810
| 62>   H                    : -4.976029            -3.686453            7.194270
| 63>   H                    : -5.521442            -2.886207            8.754006
| 64>   H                    : -4.844538            -4.540704            8.737894
| 65>   C                      -8.750132            -3.209529            5.758697
| 66>   O                      -8.636252            -2.800862            7.090331
| 67>   H                      -8.941399            -1.901998            7.252660
| 68>   H                      -8.567142            -2.361493            5.074690
| 69>   H                      -7.992713            -4.009149            5.610206
| 70>   H                      -9.785928            -3.549334            5.647904
| 71> *
| 72>
| 73>                          ****END OF INPUT****
 Total Charge           Charge          ....    0
 Multiplicity           Mult            ....    1
 Number of Electrons    NEL             ....   36
Dispersion correction           -0.001897613
FINAL SINGLE POINT ENERGY      -231.476911101488
Dispersion correction           -0.000244476
FINAL SINGLE POINT ENERGY      -115.734511676180

CARTESIAN COORDINATES (ANGSTROEM)
---------------------------------
  C     -5.489523   -3.813304    8.215315
  O     -6.739284   -4.407885    8.109298
  H     -7.413917   -3.714608    8.024810
  H     -4.976029   -3.686453    7.194270
  H     -5.521442   -2.886207    8.754006
  H     -4.844538   -4.540704    8.737894
  C     -8.750132   -3.209529    5.758697
  O     -8.636252   -2.800862    7.090331
  H     -8.941399   -1.901998    7.252660
  H     -8.567142   -2.361493    5.074690
  H     -7.992713   -4.009149    5.610206
  H     -9.785928   -3.549334    5.647904

 Multiplicity           Mult            ....    1
 Number of Electrons    NEL             ....   18
 Basis Dimension        Dim             ....  172

ORBITAL ENERGIES
----------------

  NO   OCC          E(Eh)            E(eV)
   0   2.0000     -19.223994      -523.1115
   1   2.0000     -10.315141      -280.6892
   2   2.0000      -1.135849       -30.9080
   3   2.0000      -0.792772       -21.5724
   4   2.0000      -0.611396       -16.6369
   5   2.0000      -0.547369       -14.8947
   6   2.0000      -0.526325       -14.3220
   7   2.0000      -0.425098       -11.5675
   8   2.0000      -0.368304       -10.0221
   9   0.0000       0.096751         2.6327
  10   0.0000       0.124192         3.3794
  11   0.0000       0.155159         4.2221
  12   0.0000       0.187341         5.0978
  13   0.0000       0.198882         5.4119

MULLIKEN ATOMIC CHARGES
-----------------------
   0 C :   -0.002103
   1 O :    0.000143
   2 H :   -0.004176
   3 H :   -0.000314
   4 H :   -0.001320
   5 H :   -0.000289
   6 C :   -0.137504
   7 O :   -0.489638
   8 H :    0.314691
   9 H :    0.099084
  10 H :    0.119525
  11 H :    0.101901
Sum of atomic charges:    0.0000000

LOEWDIN ATOMIC CHARGES
----------------------
   0 C :   -0.004376
   1 O :   -0.008488
   2 H :   -0.057996
   3 H :   -0.000171
   4 H :   -0.000599
   5 H :   -0.000094
   6 C :   -0.385317
   7 O :   -0.018485
   8 H :    0.167691
   9 H :    0.096719
  10 H :    0.113776
  11 H :    0.097338

  Mayer bond orders larger than 0.1
B(  6-C ,  7-O ) :   0.9683 B(  6-C ,  9-H ) :   0.9757 B(  6-C , 10-H ) :   0.9752
B(  6-C , 11-H ) :   0.9799 B(  7-O ,  8-H ) :   0.8933

Dispersion correction           -0.000230873
FINAL SINGLE POINT ENERGY      -115.733900067237

DIPOLE MOMENT
-------------
                                X             Y             Z
Electronic contribution:      0.20300       0.36825       1.60442
Nuclear contribution   :     -0.44750       0.07016      -2.03396
                        -----------------------------------------
Total Dipole Moment    :     -0.24450       0.43842      -0.42954
                        -----------------------------------------
Magnitude (a.u.)       :      0.66068
Magnitude (Debye)      :      1.67931

Rotational constants in cm-1:     4.157616     0.852434     0.821664
Rotational constants in MHz : 124642.195152 25555.327187 24632.852777

                             ****ORCA TERMINATED NORMALLY****
TOTAL RUN TIME: 0 days 0 hours 1 minutes 7 seconds 561 msec
