                         Program Version 4.1.2  - RELEASE  -
|  1> #Run DFT-D3 single point of the dimer
|  2> ! wB97X-D3 def2-TZVP TIGHTSCF CHELPG PMODEL PAL8
|  3>
|  4> %base "9-147_DFT_AB"
|  5>
|  6> %scf
|  7> MaxIter 1000
|  8> end
|  9>
| 10> * xyz 0 1
| 11>   C                      3.223272             -2.438549            -3.423664
| 12>   O                      3.022313             -1.536234            -2.328984
| 13>   H                      3.613779             -1.773464            -1.680100
| 14>   H                      4.288692             -2.640440            -3.533088
| 15>   H                      2.703304             -3.430729            -3.213615
| 16>   H                      2.902876             -2.032643            -4.407125
| 17>   C                      4.357055             -0.921012            0.508239
| 18>   O                      4.768038             -2.020735            -0.250055
| 19>   H                      5.388173             -2.572599            0.225571
| 20>   H                      3.704529             -1.196182            1.324755
| 21>   H                      5.206016             -0.304580            0.819030
| 22>   H                      3.826832             -0.204135            -0.156533
| 23> *
| 24>
| 25> #Run DFT-D3 single point of the molecule with dimer basis set
| 26> $new_job
| 27> %base "9-147_DFT_A"
| 28> ! wB97X-D3 def2-TZVP TIGHTSCF CHELPG PMODEL
| 29>
| 30> %scf
| 31> MaxIter 1000
| 32> end
| 33>
| 34> * xyz 0 1
| 35>   C                      3.223272             -2.438549            -3.423664
| 36>   O                      3.022313             -1.536234            -2.328984
| 37>   H                      3.613779             -1.773464            -1.680100
| 38>   H                      4.288692             -2.640440            -3.533088
| 39>   H                      2.703304             -3.430729            -3.213615
| 40>   H                      2.902876             -2.032643            -4.407125
| 41>   C                    : 4.357055             -0.921012            0.508239
| 42>   O                    : 4.768038             -2.020735            -0.250055
| 43>   H                    : 5.388173             -2.572599            0.225571
| 44>   H                    : 3.704529             -1.196182            1.324755
| 45>   H                    : 5.206016             -0.304580            0.819030
| 46>   H                    : 3.826832             -0.204135            -0.156533
| 47> *
| 48>
| 49> #Run DFT-D3 single point of the particle with dimer basis set
| 50> $new_job
| 51> %base "9-147_DFT_B"
| 52> ! wB97X-D3 def2-TZVP TIGHTSCF CHELPG PMODEL
| 53>
| 54> %scf
| 55> MaxIter 1000
| 56> end
| 57>
| 58> * xyz 0 1
| 59>   C                    : 3.223272             -2.438549            -3.423664
| 60>   O                    : 3.022313             -1.536234            -2.328984
| 61>   H                    : 3.613779             -1.773464            -1.680100
| 62>   H                    : 4.288692             -2.640440            -3.533088
| 63>   H                    : 2.703304             -3.430729            -3.213615
| 64>   H                    : 2.902876             -2.032643            -4.407125
| 65>   C                      4.357055             -0.921012            0.508239
| 66>   O                      4.768038             -2.020735            -0.250055
| 67>   H                      5.388173             -2.572599            0.225571
| 68>   H                      3.704529             -1.196182            1.324755
| 69>   H                      5.206016             -0.304580            0.819030
| 70>   H                      3.826832             -0.204135            -0.156533
| 71> *
| 72>
| 73>                          ****END OF INPUT****
 Total Charge           Charge          ....    0
 Multiplicity           Mult            ....    1
 Number of Electrons    NEL             ....   36
Dispersion correction           -0.001786085
FINAL SINGLE POINT ENERGY      -231.473862305838
Dispersion correction           -0.000247424
FINAL SINGLE POINT ENERGY      -115.731543085046

CARTESIAN COORDINATES (ANGSTROEM)
---------------------------------
  C      3.223272   -2.438549   -3.423664
  O      3.022313   -1.536234   -2.328984
  H      3.613779   -1.773464   -1.680100
  H      4.288692   -2.640440   -3.533088
  H      2.703304   -3.430729   -3.213615
  H      2.902876   -2.032643   -4.407125
  C      4.357055   -0.921012    0.508239
  O      4.768038   -2.020735   -0.250055
  H      5.388173   -2.572599    0.225571
  H      3.704529   -1.196182    1.324755
  H      5.206016   -0.304580    0.819030
  H      3.826832   -0.204135   -0.156533

 Multiplicity           Mult            ....    1
 Number of Electrons    NEL             ....   18
 Basis Dimension        Dim             ....  172

ORBITAL ENERGIES
----------------

  NO   OCC          E(Eh)            E(eV)
   0   2.0000     -19.228717      -523.2400
   1   2.0000     -10.312103      -280.6066
   2   2.0000      -1.139339       -31.0030
   3   2.0000      -0.797176       -21.6923
   4   2.0000      -0.612777       -16.6745
   5   2.0000      -0.552789       -15.0421
   6   2.0000      -0.524514       -14.2727
   7   2.0000      -0.421732       -11.4759
   8   2.0000      -0.376166       -10.2360
   9   0.0000       0.101182         2.7533
  10   0.0000       0.125566         3.4168
  11   0.0000       0.150907         4.1064
  12   0.0000       0.188219         5.1217
  13   0.0000       0.206392         5.6162

MULLIKEN ATOMIC CHARGES
-----------------------
   0 C :    0.001166
   1 O :   -0.001261
   2 H :    0.000919
   3 H :   -0.002351
   4 H :   -0.000419
   5 H :   -0.000155
   6 C :   -0.153120
   7 O :   -0.474355
   8 H :    0.309374
   9 H :    0.104217
  10 H :    0.101446
  11 H :    0.114537
Sum of atomic charges:   -0.0000000

LOEWDIN ATOMIC CHARGES
----------------------
   0 C :   -0.003263
   1 O :   -0.007342
   2 H :   -0.042395
   3 H :   -0.000935
   4 H :   -0.000136
   5 H :   -0.000036
   6 C :   -0.389133
   7 O :   -0.026584
   8 H :    0.165146
   9 H :    0.092439
  10 H :    0.095953
  11 H :    0.116285

  Mayer bond orders larger than 0.1
B(  6-C ,  7-O ) :   0.9932 B(  6-C ,  9-H ) :   0.9720 B(  6-C , 10-H ) :   0.9748
B(  6-C , 11-H ) :   0.9794 B(  7-O ,  8-H ) :   0.8971

Dispersion correction           -0.000245963
FINAL SINGLE POINT ENERGY      -115.735379314671

DIPOLE MOMENT
-------------
                                X             Y             Z
Electronic contribution:      0.44347      -1.47182      -0.96092
Nuclear contribution   :     -0.19548       1.56607       1.56269
                        -----------------------------------------
Total Dipole Moment    :      0.24799       0.09424       0.60177
                        -----------------------------------------
Magnitude (a.u.)       :      0.65765
Magnitude (Debye)      :      1.67162

Rotational constants in cm-1:     4.361802     0.835968     0.816020
Rotational constants in MHz : 130763.520301 25061.690214 24463.666355

                             ****ORCA TERMINATED NORMALLY****
TOTAL RUN TIME: 0 days 0 hours 0 minutes 46 seconds 507 msec
