                         Program Version 4.1.2  - RELEASE  -
|  1> #Run DFT geometry optimization
|  2> ! wB97X-D3 def2-TZVP TIGHTSCF Grid5 FinalGrid6 Opt CHELPG PAL4
|  3>
|  4> %base "8_geo_opt"
|  5> %geom MaxIter 500
|  6> end
|  7>
|  8> %geom
|  9>   Constraints
| 10>     { B 0 1 C }
| 11>   end
| 12> end
| 13>
| 14>
| 15> * xyz 0 1
| 16>   C                    3.011602             -1.180886            0.598550
| 17>   O                    4.394379             -1.128061            0.874249
| 18>   H                    4.771902             -0.379033            0.412434
| 19>   H                    2.806728             -1.318954            -0.469291
| 20>   H                    2.611926             -2.040254            1.135957
| 21>   H                    2.485051             -0.284480            0.945718
| 22> *
| 23>
| 24>                          ****END OF INPUT****
 Total Charge           Charge          ....    0
 Multiplicity           Mult            ....    1
 Number of Electrons    NEL             ....   18
Dispersion correction           -0.000238976
FINAL SINGLE POINT ENERGY      -115.738051130345
Dispersion correction            ... done
                    ***********************HURRAY********************

CARTESIAN COORDINATES (ANGSTROEM)
---------------------------------
  C      3.011676   -1.180919    0.598588
  O      4.394466   -1.127997    0.874207
  H      4.772057   -0.378985    0.412452
  H      2.806635   -1.318985   -0.469255
  H      2.611775   -2.040243    1.135920
  H      2.484980   -0.284539    0.945705

 Multiplicity           Mult            ....    1
 Number of Electrons    NEL             ....   18
 Basis Dimension        Dim             ....   86

ORBITAL ENERGIES
----------------

  NO   OCC          E(Eh)            E(eV)
   0   2.0000     -19.228085      -523.2228
   1   2.0000     -10.315065      -280.6872
   2   2.0000      -1.136988       -30.9390
   3   2.0000      -0.795324       -21.6419
   4   2.0000      -0.611708       -16.6454
   5   2.0000      -0.541820       -14.7437
   6   2.0000      -0.526415       -14.3245
   7   2.0000      -0.433737       -11.8026
   8   2.0000      -0.373578       -10.1656
   9   0.0000       0.116644         3.1740
  10   0.0000       0.156710         4.2643
  11   0.0000       0.202595         5.5129
  12   0.0000       0.205133         5.5820
  13   0.0000       0.226430         6.1615

MULLIKEN ATOMIC CHARGES
-----------------------
   0 C :   -0.150723
   1 O :   -0.477543
   2 H :    0.313043
   3 H :    0.098528
   4 H :    0.118163
   5 H :    0.098532
Sum of atomic charges:   -0.0000000

LOEWDIN ATOMIC CHARGES
----------------------
   0 C :   -0.385624
   1 O :   -0.075651
   2 H :    0.165840
   3 H :    0.093375
   4 H :    0.108688
   5 H :    0.093373

  Mayer bond orders larger than 0.1
B(  0-C ,  1-O ) :   0.9987 B(  0-C ,  3-H ) :   0.9756 B(  0-C ,  4-H ) :   0.9749
B(  0-C ,  5-H ) :   0.9755 B(  1-O ,  2-H ) :   0.9002

Dispersion correction           -0.000239061
FINAL SINGLE POINT ENERGY      -115.738051190031

DIPOLE MOMENT
-------------
                                X             Y             Z
Electronic contribution:      1.75648      -0.02815       0.41984
Nuclear contribution   :     -2.06545       0.47574      -0.81729
                        -----------------------------------------
Total Dipole Moment    :     -0.30897       0.44759      -0.39745
                        -----------------------------------------
Magnitude (a.u.)       :      0.67362
Magnitude (Debye)      :      1.71222

Rotational constants in cm-1:     4.293239     0.834335     0.805415
Rotational constants in MHz : 128708.057530 25012.732220 24145.730166

                             ****ORCA TERMINATED NORMALLY****
TOTAL RUN TIME: 0 days 0 hours 0 minutes 37 seconds 319 msec
