                         Program Version 4.1.2  - RELEASE  -
|  1> #Run DFT-D3 single point of the dimer
|  2> ! wB97X-D3 def2-TZVP TIGHTSCF CHELPG PMODEL PAL8
|  3>
|  4> %base "15-132_DFT_AB"
|  5>
|  6> %scf
|  7> MaxIter 1000
|  8> end
|  9>
| 10> * xyz 0 1
| 11>   C                      8.333353             5.513837             5.380126
| 12>   O                      9.205957             5.227535             6.419786
| 13>   H                      8.747401             5.686495             7.167722
| 14>   H                      7.288762             5.499684             5.703675
| 15>   H                      8.573081             6.488046             4.882362
| 16>   H                      8.373617             4.670108             4.635545
| 17>   C                      7.303674             0.687426             6.517185
| 18>   O                      7.707774             1.463133             5.439199
| 19>   H                      7.376451             2.362845             5.531690
| 20>   H                      7.904835             -0.202361            6.651812
| 21>   H                      7.412063             1.245180             7.486515
| 22>   H                      6.233770             0.467527             6.340801
| 23> *
| 24>
| 25> #Run DFT-D3 single point of the molecule with dimer basis set
| 26> $new_job
| 27> %base "15-132_DFT_A"
| 28> ! wB97X-D3 def2-TZVP TIGHTSCF CHELPG PMODEL
| 29>
| 30> %scf
| 31> MaxIter 1000
| 32> end
| 33>
| 34> * xyz 0 1
| 35>   C                      8.333353             5.513837             5.380126
| 36>   O                      9.205957             5.227535             6.419786
| 37>   H                      8.747401             5.686495             7.167722
| 38>   H                      7.288762             5.499684             5.703675
| 39>   H                      8.573081             6.488046             4.882362
| 40>   H                      8.373617             4.670108             4.635545
| 41>   C                    : 7.303674             0.687426             6.517185
| 42>   O                    : 7.707774             1.463133             5.439199
| 43>   H                    : 7.376451             2.362845             5.531690
| 44>   H                    : 7.904835             -0.202361            6.651812
| 45>   H                    : 7.412063             1.245180             7.486515
| 46>   H                    : 6.233770             0.467527             6.340801
| 47> *
| 48>
| 49> #Run DFT-D3 single point of the particle with dimer basis set
| 50> $new_job
| 51> %base "15-132_DFT_B"
| 52> ! wB97X-D3 def2-TZVP TIGHTSCF CHELPG PMODEL
| 53>
| 54> %scf
| 55> MaxIter 1000
| 56> end
| 57>
| 58> * xyz 0 1
| 59>   C                    : 8.333353             5.513837             5.380126
| 60>   O                    : 9.205957             5.227535             6.419786
| 61>   H                    : 8.747401             5.686495             7.167722
| 62>   H                    : 7.288762             5.499684             5.703675
| 63>   H                    : 8.573081             6.488046             4.882362
| 64>   H                    : 8.373617             4.670108             4.635545
| 65>   C                      7.303674             0.687426             6.517185
| 66>   O                      7.707774             1.463133             5.439199
| 67>   H                      7.376451             2.362845             5.531690
| 68>   H                      7.904835             -0.202361            6.651812
| 69>   H                      7.412063             1.245180             7.486515
| 70>   H                      6.233770             0.467527             6.340801
| 71> *
| 72>
| 73>                          ****END OF INPUT****
 Total Charge           Charge          ....    0
 Multiplicity           Mult            ....    1
 Number of Electrons    NEL             ....   36
Dispersion correction           -0.001228183
FINAL SINGLE POINT ENERGY      -231.465328199078
Dispersion correction           -0.000225492
FINAL SINGLE POINT ENERGY      -115.731544263679

CARTESIAN COORDINATES (ANGSTROEM)
---------------------------------
  C      8.333353    5.513837    5.380126
  O      9.205957    5.227535    6.419786
  H      8.747401    5.686495    7.167722
  H      7.288762    5.499684    5.703675
  H      8.573081    6.488046    4.882362
  H      8.373617    4.670108    4.635545
  C      7.303674    0.687426    6.517185
  O      7.707774    1.463133    5.439199
  H      7.376451    2.362845    5.531690
  H      7.904835   -0.202361    6.651812
  H      7.412063    1.245180    7.486515
  H      6.233770    0.467527    6.340801

 Multiplicity           Mult            ....    1
 Number of Electrons    NEL             ....   18
 Basis Dimension        Dim             ....  172

ORBITAL ENERGIES
----------------

  NO   OCC          E(Eh)            E(eV)
   0   2.0000     -19.227498      -523.2068
   1   2.0000     -10.314287      -280.6660
   2   2.0000      -1.142033       -31.0763
   3   2.0000      -0.792270       -21.5588
   4   2.0000      -0.611844       -16.6491
   5   2.0000      -0.551150       -14.9976
   6   2.0000      -0.529112       -14.3979
   7   2.0000      -0.425761       -11.5856
   8   2.0000      -0.369308       -10.0494
   9   0.0000       0.073739         2.0065
  10   0.0000       0.127281         3.4635
  11   0.0000       0.150566         4.0971
  12   0.0000       0.170405         4.6370
  13   0.0000       0.190727         5.1899

MULLIKEN ATOMIC CHARGES
-----------------------
   0 C :   -0.002949
   1 O :    0.000453
   2 H :    0.000061
   3 H :    0.000153
   4 H :   -0.000073
   5 H :   -0.000064
   6 C :   -0.156276
   7 O :   -0.477891
   8 H :    0.321770
   9 H :    0.120313
  10 H :    0.094070
  11 H :    0.100434
Sum of atomic charges:   -0.0000000

LOEWDIN ATOMIC CHARGES
----------------------
   0 C :   -0.002265
   1 O :   -0.000128
   2 H :   -0.000013
   3 H :   -0.000266
   4 H :   -0.000044
   5 H :   -0.001143
   6 C :   -0.404761
   7 O :   -0.064104
   8 H :    0.173050
   9 H :    0.104353
  10 H :    0.097768
  11 H :    0.097553

  Mayer bond orders larger than 0.1
B(  6-C ,  7-O ) :   0.9930 B(  6-C ,  9-H ) :   0.9675 B(  6-C , 10-H ) :   0.9785
B(  6-C , 11-H ) :   0.9863 B(  7-O ,  8-H ) :   0.8927

Dispersion correction           -0.000226494
FINAL SINGLE POINT ENERGY      -115.733488599581

DIPOLE MOMENT
-------------
                                X             Y             Z
Electronic contribution:      0.64303       0.79485      -1.48504
Nuclear contribution   :     -0.98991      -0.52688       1.96445
                        -----------------------------------------
Total Dipole Moment    :     -0.34688       0.26796       0.47940
                        -----------------------------------------
Magnitude (a.u.)       :      0.64958
Magnitude (Debye)      :      1.65111

Rotational constants in cm-1:     4.226952     0.852232     0.827374
Rotational constants in MHz : 126720.821879 25549.285543 24804.060189

                             ****ORCA TERMINATED NORMALLY****
TOTAL RUN TIME: 0 days 0 hours 0 minutes 56 seconds 132 msec
