                         Program Version 4.1.2  - RELEASE  -
|  1> #Run DFT-D3 single point of the dimer
|  2> ! wB97X-D3 def2-TZVP TIGHTSCF CHELPG PMODEL PAL8
|  3>
|  4> %base "21-195_DFT_AB"
|  5>
|  6> %scf
|  7> MaxIter 1000
|  8> end
|  9>
| 10> * xyz 0 1
| 11>   C                      3.339832             1.269287             2.736079
| 12>   O                      4.575399             1.102023             2.148196
| 13>   H                      4.625842             1.343581             1.242459
| 14>   H                      2.622136             0.497492             2.359557
| 15>   H                      3.320272             1.094356             3.836294
| 16>   H                      2.955265             2.273138             2.563413
| 17>   C                      5.320291             -2.197871            3.138490
| 18>   O                      6.016178             -1.444388            2.229891
| 19>   H                      5.855802             -0.529282            2.452323
| 20>   H                      5.084570             -3.182776            2.646354
| 21>   H                      5.926100             -2.518909            4.004506
| 22>   H                      4.393442             -1.702306            3.476821
| 23> *
| 24>
| 25> #Run DFT-D3 single point of the molecule with dimer basis set
| 26> $new_job
| 27> %base "21-195_DFT_A"
| 28> ! wB97X-D3 def2-TZVP TIGHTSCF CHELPG PMODEL
| 29>
| 30> %scf
| 31> MaxIter 1000
| 32> end
| 33>
| 34> * xyz 0 1
| 35>   C                      3.339832             1.269287             2.736079
| 36>   O                      4.575399             1.102023             2.148196
| 37>   H                      4.625842             1.343581             1.242459
| 38>   H                      2.622136             0.497492             2.359557
| 39>   H                      3.320272             1.094356             3.836294
| 40>   H                      2.955265             2.273138             2.563413
| 41>   C                    : 5.320291             -2.197871            3.138490
| 42>   O                    : 6.016178             -1.444388            2.229891
| 43>   H                    : 5.855802             -0.529282            2.452323
| 44>   H                    : 5.084570             -3.182776            2.646354
| 45>   H                    : 5.926100             -2.518909            4.004506
| 46>   H                    : 4.393442             -1.702306            3.476821
| 47> *
| 48>
| 49> #Run DFT-D3 single point of the particle with dimer basis set
| 50> $new_job
| 51> %base "21-195_DFT_B"
| 52> ! wB97X-D3 def2-TZVP TIGHTSCF CHELPG PMODEL
| 53>
| 54> %scf
| 55> MaxIter 1000
| 56> end
| 57>
| 58> * xyz 0 1
| 59>   C                    : 3.339832             1.269287             2.736079
| 60>   O                    : 4.575399             1.102023             2.148196
| 61>   H                    : 4.625842             1.343581             1.242459
| 62>   H                    : 2.622136             0.497492             2.359557
| 63>   H                    : 3.320272             1.094356             3.836294
| 64>   H                    : 2.955265             2.273138             2.563413
| 65>   C                      5.320291             -2.197871            3.138490
| 66>   O                      6.016178             -1.444388            2.229891
| 67>   H                      5.855802             -0.529282            2.452323
| 68>   H                      5.084570             -3.182776            2.646354
| 69>   H                      5.926100             -2.518909            4.004506
| 70>   H                      4.393442             -1.702306            3.476821
| 71> *
| 72>
| 73>                          ****END OF INPUT****
 Total Charge           Charge          ....    0
 Multiplicity           Mult            ....    1
 Number of Electrons    NEL             ....   36
Dispersion correction           -0.001978280
FINAL SINGLE POINT ENERGY      -231.474556810328
Dispersion correction           -0.000245719
FINAL SINGLE POINT ENERGY      -115.732968731881

CARTESIAN COORDINATES (ANGSTROEM)
---------------------------------
  C      3.339832    1.269287    2.736079
  O      4.575399    1.102023    2.148196
  H      4.625842    1.343581    1.242459
  H      2.622136    0.497492    2.359557
  H      3.320272    1.094356    3.836294
  H      2.955265    2.273138    2.563413
  C      5.320291   -2.197871    3.138490
  O      6.016178   -1.444388    2.229891
  H      5.855802   -0.529282    2.452323
  H      5.084570   -3.182776    2.646354
  H      5.926100   -2.518909    4.004506
  H      4.393442   -1.702306    3.476821

 Multiplicity           Mult            ....    1
 Number of Electrons    NEL             ....   18
 Basis Dimension        Dim             ....  172

ORBITAL ENERGIES
----------------

  NO   OCC          E(Eh)            E(eV)
   0   2.0000     -19.232570      -523.3448
   1   2.0000     -10.314143      -280.6621
   2   2.0000      -1.154190       -31.4071
   3   2.0000      -0.790088       -21.4994
   4   2.0000      -0.620871       -16.8947
   5   2.0000      -0.545972       -14.8566
   6   2.0000      -0.529294       -14.4028
   7   2.0000      -0.433618       -11.7993
   8   2.0000      -0.370090       -10.0707
   9   0.0000       0.069544         1.8924
  10   0.0000       0.136640         3.7182
  11   0.0000       0.140645         3.8271
  12   0.0000       0.173363         4.7174
  13   0.0000       0.184971         5.0333

MULLIKEN ATOMIC CHARGES
-----------------------
   0 C :   -0.000782
   1 O :   -0.003891
   2 H :   -0.000917
   3 H :   -0.000054
   4 H :   -0.000286
   5 H :   -0.000029
   6 C :   -0.160106
   7 O :   -0.446931
   8 H :    0.314010
   9 H :    0.106606
  10 H :    0.096829
  11 H :    0.095552
Sum of atomic charges:    0.0000000

LOEWDIN ATOMIC CHARGES
----------------------
   0 C :   -0.004023
   1 O :   -0.014461
   2 H :   -0.001888
   3 H :   -0.000398
   4 H :   -0.000508
   5 H :   -0.000049
   6 C :   -0.425794
   7 O :   -0.029212
   8 H :    0.174649
   9 H :    0.111354
  10 H :    0.093709
  11 H :    0.096622

  Mayer bond orders larger than 0.1
B(  6-C ,  7-O ) :   1.0135 B(  6-C ,  9-H ) :   0.9760 B(  6-C , 10-H ) :   0.9770
B(  6-C , 11-H ) :   0.9770 B(  7-O ,  8-H ) :   0.9044

Dispersion correction           -0.000233471
FINAL SINGLE POINT ENERGY      -115.733928424779

DIPOLE MOMENT
-------------
                                X             Y             Z
Electronic contribution:      0.95954       1.00935      -1.26005
Nuclear contribution   :     -1.31620      -0.70284       1.71713
                        -----------------------------------------
Total Dipole Moment    :     -0.35666       0.30651       0.45708
                        -----------------------------------------
Magnitude (a.u.)       :      0.65580
Magnitude (Debye)      :      1.66692

Rotational constants in cm-1:     4.206653     0.876092     0.835649
Rotational constants in MHz : 126112.273407 26264.566541 25052.121558

                             ****ORCA TERMINATED NORMALLY****
TOTAL RUN TIME: 0 days 0 hours 1 minutes 8 seconds 246 msec
