                         Program Version 4.1.2  - RELEASE  -
|  1> #Run DFT-D3 single point of the dimer
|  2> ! wB97X-D3 def2-TZVP TIGHTSCF CHELPG PMODEL PAL8
|  3>
|  4> %base "11-120_DFT_AB"
|  5>
|  6> %scf
|  7> MaxIter 1000
|  8> end
|  9>
| 10> * xyz 0 1
| 11>   C                      -9.077613            5.057390             5.420772
| 12>   O                      -8.869812            6.423419             5.681312
| 13>   H                      -9.673944            6.927638             5.424677
| 14>   H                      -9.769286            4.564212             6.147987
| 15>   H                      -9.462591            4.906891             4.415890
| 16>   H                      -8.125936            4.472946             5.431620
| 17>   C                      -9.735061            9.127532             1.902618
| 18>   O                      -10.575173           8.061149             2.117928
| 19>   H                      -11.392781           8.475786             2.329030
| 20>   H                      -9.380171            9.674551             2.818954
| 21>   H                      -8.769175            8.873702             1.422123
| 22>   H                      -10.173202           9.855522             1.233516
| 23> *
| 24>
| 25> #Run DFT-D3 single point of the molecule with dimer basis set
| 26> $new_job
| 27> %base "11-120_DFT_A"
| 28> ! wB97X-D3 def2-TZVP TIGHTSCF CHELPG PMODEL
| 29>
| 30> %scf
| 31> MaxIter 1000
| 32> end
| 33>
| 34> * xyz 0 1
| 35>   C                      -9.077613            5.057390             5.420772
| 36>   O                      -8.869812            6.423419             5.681312
| 37>   H                      -9.673944            6.927638             5.424677
| 38>   H                      -9.769286            4.564212             6.147987
| 39>   H                      -9.462591            4.906891             4.415890
| 40>   H                      -8.125936            4.472946             5.431620
| 41>   C                    : -9.735061            9.127532             1.902618
| 42>   O                    : -10.575173           8.061149             2.117928
| 43>   H                    : -11.392781           8.475786             2.329030
| 44>   H                    : -9.380171            9.674551             2.818954
| 45>   H                    : -8.769175            8.873702             1.422123
| 46>   H                    : -10.173202           9.855522             1.233516
| 47> *
| 48>
| 49> #Run DFT-D3 single point of the particle with dimer basis set
| 50> $new_job
| 51> %base "11-120_DFT_B"
| 52> ! wB97X-D3 def2-TZVP TIGHTSCF CHELPG PMODEL
| 53>
| 54> %scf
| 55> MaxIter 1000
| 56> end
| 57>
| 58> * xyz 0 1
| 59>   C                    : -9.077613            5.057390             5.420772
| 60>   O                    : -8.869812            6.423419             5.681312
| 61>   H                    : -9.673944            6.927638             5.424677
| 62>   H                    : -9.769286            4.564212             6.147987
| 63>   H                    : -9.462591            4.906891             4.415890
| 64>   H                    : -8.125936            4.472946             5.431620
| 65>   C                      -9.735061            9.127532             1.902618
| 66>   O                      -10.575173           8.061149             2.117928
| 67>   H                      -11.392781           8.475786             2.329030
| 68>   H                      -9.380171            9.674551             2.818954
| 69>   H                      -8.769175            8.873702             1.422123
| 70>   H                      -10.173202           9.855522             1.233516
| 71> *
| 72>
| 73>                          ****END OF INPUT****
 Total Charge           Charge          ....    0
 Multiplicity           Mult            ....    1
 Number of Electrons    NEL             ....   36
Dispersion correction           -0.000956183
FINAL SINGLE POINT ENERGY      -231.468300197755
Dispersion correction           -0.000253096
FINAL SINGLE POINT ENERGY      -115.734963688805

CARTESIAN COORDINATES (ANGSTROEM)
---------------------------------
  C     -9.077613    5.057390    5.420772
  O     -8.869812    6.423419    5.681312
  H     -9.673944    6.927638    5.424677
  H     -9.769286    4.564212    6.147987
  H     -9.462591    4.906891    4.415890
  H     -8.125936    4.472946    5.431620
  C     -9.735061    9.127532    1.902618
  O    -10.575173    8.061149    2.117928
  H    -11.392781    8.475786    2.329030
  H     -9.380171    9.674551    2.818954
  H     -8.769175    8.873702    1.422123
  H    -10.173202    9.855522    1.233516

 Multiplicity           Mult            ....    1
 Number of Electrons    NEL             ....   18
 Basis Dimension        Dim             ....  172

ORBITAL ENERGIES
----------------

  NO   OCC          E(Eh)            E(eV)
   0   2.0000     -19.235574      -523.4266
   1   2.0000     -10.313521      -280.6452
   2   2.0000      -1.159631       -31.5552
   3   2.0000      -0.793728       -21.5984
   4   2.0000      -0.622728       -16.9453
   5   2.0000      -0.546335       -14.8665
   6   2.0000      -0.534157       -14.5351
   7   2.0000      -0.432909       -11.7801
   8   2.0000      -0.375442       -10.2163
   9   0.0000       0.092882         2.5274
  10   0.0000       0.118139         3.2147
  11   0.0000       0.152849         4.1592
  12   0.0000       0.171940         4.6787
  13   0.0000       0.201643         5.4870

MULLIKEN ATOMIC CHARGES
-----------------------
   0 C :    0.000992
   1 O :    0.000040
   2 H :   -0.001805
   3 H :   -0.000035
   4 H :   -0.001320
   5 H :   -0.000016
   6 C :   -0.175843
   7 O :   -0.448131
   8 H :    0.316912
   9 H :    0.091576
  10 H :    0.113446
  11 H :    0.104183
Sum of atomic charges:   -0.0000000

LOEWDIN ATOMIC CHARGES
----------------------
   0 C :   -0.000232
   1 O :   -0.000088
   2 H :   -0.001255
   3 H :   -0.000001
   4 H :   -0.000386
   5 H :   -0.000001
   6 C :   -0.430312
   7 O :   -0.031454
   8 H :    0.166485
   9 H :    0.096262
  10 H :    0.109595
  11 H :    0.091386

  Mayer bond orders larger than 0.1
B(  6-C ,  7-O ) :   1.0073 B(  6-C ,  9-H ) :   0.9706 B(  6-C , 10-H ) :   0.9739
B(  6-C , 11-H ) :   0.9829 B(  7-O ,  8-H ) :   0.9013

Dispersion correction           -0.000231486
FINAL SINGLE POINT ENERGY      -115.731986583562

DIPOLE MOMENT
-------------
                                X             Y             Z
Electronic contribution:     -1.14692      -1.64798       0.26776
Nuclear contribution   :      0.93266       2.29307      -0.24353
                        -----------------------------------------
Total Dipole Moment    :     -0.21426       0.64510       0.02423
                        -----------------------------------------
Magnitude (a.u.)       :      0.68018
Magnitude (Debye)      :      1.72888

Rotational constants in cm-1:     4.405834     0.858172     0.830623
Rotational constants in MHz : 132083.591049 25727.339802 24901.444590

                             ****ORCA TERMINATED NORMALLY****
TOTAL RUN TIME: 0 days 0 hours 1 minutes 1 seconds 258 msec
