                         Program Version 4.1.2  - RELEASE  -
|  1> #Run DFT-D3 single point of the dimer
|  2> ! wB97X-D3 def2-TZVP TIGHTSCF CHELPG PMODEL PAL8
|  3>
|  4> %base "1-7_DFT_AB"
|  5>
|  6> %scf
|  7> MaxIter 1000
|  8> end
|  9>
| 10> * xyz 0 1
| 11>   C                      9.200212             -0.043180            -9.565434
| 12>   O                      9.554774             -1.096549            -10.437954
| 13>   H                      8.810074             -1.397216            -10.963282
| 14>   H                      8.999381             0.938435             -10.111305
| 15>   H                      8.186143             -0.271036            -9.063142
| 16>   H                      9.978247             0.232531             -8.802907
| 17>   C                      9.668061             -3.866281            -6.976412
| 18>   O                      8.552818             -3.581596            -6.200644
| 19>   H                      8.019114             -2.985444            -6.708306
| 20>   H                      10.315615            -4.650284            -6.516347
| 21>   H                      9.364548             -4.279350            -7.979582
| 22>   H                      10.229104            -2.945901            -7.121084
| 23> *
| 24>
| 25> #Run DFT-D3 single point of the molecule with dimer basis set
| 26> $new_job
| 27> %base "1-7_DFT_A"
| 28> ! wB97X-D3 def2-TZVP TIGHTSCF CHELPG PMODEL
| 29>
| 30> %scf
| 31> MaxIter 1000
| 32> end
| 33>
| 34> * xyz 0 1
| 35>   C                      9.200212             -0.043180            -9.565434
| 36>   O                      9.554774             -1.096549            -10.437954
| 37>   H                      8.810074             -1.397216            -10.963282
| 38>   H                      8.999381             0.938435             -10.111305
| 39>   H                      8.186143             -0.271036            -9.063142
| 40>   H                      9.978247             0.232531             -8.802907
| 41>   C                    : 9.668061             -3.866281            -6.976412
| 42>   O                    : 8.552818             -3.581596            -6.200644
| 43>   H                    : 8.019114             -2.985444            -6.708306
| 44>   H                    : 10.315615            -4.650284            -6.516347
| 45>   H                    : 9.364548             -4.279350            -7.979582
| 46>   H                    : 10.229104            -2.945901            -7.121084
| 47> *
| 48>
| 49> #Run DFT-D3 single point of the particle with dimer basis set
| 50> $new_job
| 51> %base "1-7_DFT_B"
| 52> ! wB97X-D3 def2-TZVP TIGHTSCF CHELPG PMODEL
| 53>
| 54> %scf
| 55> MaxIter 1000
| 56> end
| 57>
| 58> * xyz 0 1
| 59>   C                    : 9.200212             -0.043180            -9.565434
| 60>   O                    : 9.554774             -1.096549            -10.437954
| 61>   H                    : 8.810074             -1.397216            -10.963282
| 62>   H                    : 8.999381             0.938435             -10.111305
| 63>   H                    : 8.186143             -0.271036            -9.063142
| 64>   H                    : 9.978247             0.232531             -8.802907
| 65>   C                      9.668061             -3.866281            -6.976412
| 66>   O                      8.552818             -3.581596            -6.200644
| 67>   H                      8.019114             -2.985444            -6.708306
| 68>   H                      10.315615            -4.650284            -6.516347
| 69>   H                      9.364548             -4.279350            -7.979582
| 70>   H                      10.229104            -2.945901            -7.121084
| 71> *
| 72>
| 73>                          ****END OF INPUT****
 Total Charge           Charge          ....    0
 Multiplicity           Mult            ....    1
 Number of Electrons    NEL             ....   36
Dispersion correction           -0.001142727
FINAL SINGLE POINT ENERGY      -231.465603759089
Dispersion correction           -0.000274072
FINAL SINGLE POINT ENERGY      -115.730179205203

CARTESIAN COORDINATES (ANGSTROEM)
---------------------------------
  C      9.200212   -0.043180   -9.565434
  O      9.554774   -1.096549  -10.437954
  H      8.810074   -1.397216  -10.963282
  H      8.999381    0.938435  -10.111305
  H      8.186143   -0.271036   -9.063142
  H      9.978247    0.232531   -8.802907
  C      9.668061   -3.866281   -6.976412
  O      8.552818   -3.581596   -6.200644
  H      8.019114   -2.985444   -6.708306
  H     10.315615   -4.650284   -6.516347
  H      9.364548   -4.279350   -7.979582
  H     10.229104   -2.945901   -7.121084

 Multiplicity           Mult            ....    1
 Number of Electrons    NEL             ....   18
 Basis Dimension        Dim             ....  172

ORBITAL ENERGIES
----------------

  NO   OCC          E(Eh)            E(eV)
   0   2.0000     -19.228350      -523.2300
   1   2.0000     -10.316333      -280.7217
   2   2.0000      -1.148225       -31.2448
   3   2.0000      -0.790401       -21.5079
   4   2.0000      -0.614373       -16.7179
   5   2.0000      -0.547736       -14.9046
   6   2.0000      -0.529794       -14.4164
   7   2.0000      -0.430602       -11.7173
   8   2.0000      -0.371265       -10.1026
   9   0.0000       0.070750         1.9252
  10   0.0000       0.122518         3.3339
  11   0.0000       0.149246         4.0612
  12   0.0000       0.154187         4.1956
  13   0.0000       0.187260         5.0956

MULLIKEN ATOMIC CHARGES
-----------------------
   0 C :    0.000424
   1 O :   -0.000055
   2 H :   -0.000042
   3 H :    0.000011
   4 H :   -0.000204
   5 H :   -0.000219
   6 C :   -0.163533
   7 O :   -0.464711
   8 H :    0.313908
   9 H :    0.120411
  10 H :    0.090826
  11 H :    0.103185
Sum of atomic charges:    0.0000000

LOEWDIN ATOMIC CHARGES
----------------------
   0 C :   -0.000393
   1 O :   -0.000079
   2 H :   -0.000035
   3 H :   -0.000003
   4 H :   -0.000137
   5 H :   -0.000151
   6 C :   -0.409582
   7 O :   -0.055142
   8 H :    0.164214
   9 H :    0.112497
  10 H :    0.096856
  11 H :    0.091955

  Mayer bond orders larger than 0.1
B(  6-C ,  7-O ) :   0.9950 B(  6-C ,  9-H ) :   0.9702 B(  6-C , 10-H ) :   0.9781
B(  6-C , 11-H ) :   0.9797 B(  7-O ,  8-H ) :   0.9015

Dispersion correction           -0.000220055
FINAL SINGLE POINT ENERGY      -115.734541590736

DIPOLE MOMENT
-------------
                                X             Y             Z
Electronic contribution:     -1.38740       0.30407       1.18663
Nuclear contribution   :      1.47175      -0.03614      -1.79186
                        -----------------------------------------
Total Dipole Moment    :      0.08435       0.26793      -0.60523
                        -----------------------------------------
Magnitude (a.u.)       :      0.66723
Magnitude (Debye)      :      1.69597

Rotational constants in cm-1:     4.195735     0.857071     0.826589
Rotational constants in MHz : 125784.972428 25694.335578 24780.500064

                             ****ORCA TERMINATED NORMALLY****
TOTAL RUN TIME: 0 days 0 hours 6 minutes 17 seconds 640 msec
