                         Program Version 4.1.2  - RELEASE  -
|  1> #Run DFT-D3 single point of the dimer
|  2> ! wB97X-D3 def2-TZVP TIGHTSCF CHELPG PMODEL PAL8
|  3>
|  4> %base "19-134_DFT_AB"
|  5>
|  6> %scf
|  7> MaxIter 1000
|  8> end
|  9>
| 10> * xyz 0 1
| 11>   C                      -7.106117            -0.711953            -4.295349
| 12>   O                      -7.987258            -0.969623            -5.345620
| 13>   H                      -8.785335            -0.606331            -5.012032
| 14>   H                      -6.036073            -1.036936            -4.411769
| 15>   H                      -7.037151            0.351110             -4.185939
| 16>   H                      -7.469075            -1.155235            -3.374603
| 17>   C                      -7.528065            0.142934             -10.279111
| 18>   O                      -8.302378            0.757555             -9.316046
| 19>   H                      -8.914305            1.236668             -9.863616
| 20>   H                      -8.081730            -0.516061            -10.904095
| 21>   H                      -7.235268            0.950584             -10.947606
| 22>   H                      -6.567483            -0.255264            -9.939949
| 23> *
| 24>
| 25> #Run DFT-D3 single point of the molecule with dimer basis set
| 26> $new_job
| 27> %base "19-134_DFT_A"
| 28> ! wB97X-D3 def2-TZVP TIGHTSCF CHELPG PMODEL
| 29>
| 30> %scf
| 31> MaxIter 1000
| 32> end
| 33>
| 34> * xyz 0 1
| 35>   C                      -7.106117            -0.711953            -4.295349
| 36>   O                      -7.987258            -0.969623            -5.345620
| 37>   H                      -8.785335            -0.606331            -5.012032
| 38>   H                      -6.036073            -1.036936            -4.411769
| 39>   H                      -7.037151            0.351110             -4.185939
| 40>   H                      -7.469075            -1.155235            -3.374603
| 41>   C                    : -7.528065            0.142934             -10.279111
| 42>   O                    : -8.302378            0.757555             -9.316046
| 43>   H                    : -8.914305            1.236668             -9.863616
| 44>   H                    : -8.081730            -0.516061            -10.904095
| 45>   H                    : -7.235268            0.950584             -10.947606
| 46>   H                    : -6.567483            -0.255264            -9.939949
| 47> *
| 48>
| 49> #Run DFT-D3 single point of the particle with dimer basis set
| 50> $new_job
| 51> %base "19-134_DFT_B"
| 52> ! wB97X-D3 def2-TZVP TIGHTSCF CHELPG PMODEL
| 53>
| 54> %scf
| 55> MaxIter 1000
| 56> end
| 57>
| 58> * xyz 0 1
| 59>   C                    : -7.106117            -0.711953            -4.295349
| 60>   O                    : -7.987258            -0.969623            -5.345620
| 61>   H                    : -8.785335            -0.606331            -5.012032
| 62>   H                    : -6.036073            -1.036936            -4.411769
| 63>   H                    : -7.037151            0.351110             -4.185939
| 64>   H                    : -7.469075            -1.155235            -3.374603
| 65>   C                      -7.528065            0.142934             -10.279111
| 66>   O                      -8.302378            0.757555             -9.316046
| 67>   H                      -8.914305            1.236668             -9.863616
| 68>   H                      -8.081730            -0.516061            -10.904095
| 69>   H                      -7.235268            0.950584             -10.947606
| 70>   H                      -6.567483            -0.255264            -9.939949
| 71> *
| 72>
| 73>                          ****END OF INPUT****
 Total Charge           Charge          ....    0
 Multiplicity           Mult            ....    1
 Number of Electrons    NEL             ....   36
Dispersion correction           -0.000594077
FINAL SINGLE POINT ENERGY      -231.456600549799
Dispersion correction           -0.000209132
FINAL SINGLE POINT ENERGY      -115.730202497172

CARTESIAN COORDINATES (ANGSTROEM)
---------------------------------
  C     -7.106117   -0.711953   -4.295349
  O     -7.987258   -0.969623   -5.345620
  H     -8.785335   -0.606331   -5.012032
  H     -6.036073   -1.036936   -4.411769
  H     -7.037151    0.351110   -4.185939
  H     -7.469075   -1.155235   -3.374603
  C     -7.528065    0.142934  -10.279111
  O     -8.302378    0.757555   -9.316046
  H     -8.914305    1.236668   -9.863616
  H     -8.081730   -0.516061  -10.904095
  H     -7.235268    0.950584  -10.947606
  H     -6.567483   -0.255264   -9.939949

 Multiplicity           Mult            ....    1
 Number of Electrons    NEL             ....   18
 Basis Dimension        Dim             ....  172

ORBITAL ENERGIES
----------------

  NO   OCC          E(Eh)            E(eV)
   0   2.0000     -19.229760      -523.2684
   1   2.0000     -10.307115      -280.4709
   2   2.0000      -1.154986       -31.4288
   3   2.0000      -0.793930       -21.6039
   4   2.0000      -0.620352       -16.8806
   5   2.0000      -0.551504       -15.0072
   6   2.0000      -0.534247       -14.5376
   7   2.0000      -0.437740       -11.9115
   8   2.0000      -0.369173       -10.0457
   9   0.0000       0.094441         2.5699
  10   0.0000       0.112998         3.0748
  11   0.0000       0.159598         4.3429
  12   0.0000       0.175154         4.7662
  13   0.0000       0.197052         5.3621

MULLIKEN ATOMIC CHARGES
-----------------------
   0 C :   -0.000083
   1 O :   -0.000098
   2 H :   -0.000106
   3 H :    0.000005
   4 H :    0.000004
   5 H :    0.000000
   6 C :   -0.170508
   7 O :   -0.455976
   8 H :    0.315264
   9 H :    0.098831
  10 H :    0.095068
  11 H :    0.117599
Sum of atomic charges:   -0.0000000

LOEWDIN ATOMIC CHARGES
----------------------
   0 C :   -0.000022
   1 O :   -0.000108
   2 H :   -0.000078
   3 H :   -0.000000
   4 H :   -0.000002
   5 H :   -0.000001
   6 C :   -0.412684
   7 O :   -0.049071
   8 H :    0.172264
   9 H :    0.086424
  10 H :    0.094940
  11 H :    0.108338

  Mayer bond orders larger than 0.1
B(  6-C ,  7-O ) :   0.9937 B(  6-C ,  9-H ) :   0.9736 B(  6-C , 10-H ) :   0.9980
B(  6-C , 11-H ) :   0.9705 B(  7-O ,  8-H ) :   0.9026

Dispersion correction           -0.000191464
FINAL SINGLE POINT ENERGY      -115.727252666222

DIPOLE MOMENT
-------------
                                X             Y             Z
Electronic contribution:     -0.96089       0.54427       1.52901
Nuclear contribution   :      0.88244      -0.45516      -2.23909
                        -----------------------------------------
Total Dipole Moment    :     -0.07845       0.08910      -0.71007
                        -----------------------------------------
Magnitude (a.u.)       :      0.71993
Magnitude (Debye)      :      1.82992

Rotational constants in cm-1:     4.369441     0.880242     0.840386
Rotational constants in MHz : 130992.548047 26388.990453 25194.136205

                             ****ORCA TERMINATED NORMALLY****
TOTAL RUN TIME: 0 days 0 hours 0 minutes 45 seconds 562 msec
