                         Program Version 4.1.2  - RELEASE  -
|  1> #Run DFT-D3 single point of the dimer
|  2> ! wB97X-D3 def2-TZVP TIGHTSCF CHELPG PMODEL PAL8
|  3>
|  4> %base "3-76_DFT_AB"
|  5>
|  6> %scf
|  7> MaxIter 1000
|  8> end
|  9>
| 10> * xyz 0 1
| 11>   C                      -4.944868            -6.379908            -6.736573
| 12>   O                      -6.142319            -5.643729            -6.610150
| 13>   H                      -6.328640            -5.442620            -7.501184
| 14>   H                      -4.130525            -5.985907            -6.044649
| 15>   H                      -5.172011            -7.357734            -6.328079
| 16>   H                      -4.478197            -6.584611            -7.685240
| 17>   C                      -0.476334            -6.443746            -10.023954
| 18>   O                      -1.875961            -6.487827            -9.636245
| 19>   H                      -1.998111            -5.789325            -8.966662
| 20>   H                      0.182757             -6.617556            -9.120200
| 21>   H                      -0.286599            -7.294597            -10.680926
| 22>   H                      -0.244265            -5.575583            -10.590777
| 23> *
| 24>
| 25> #Run DFT-D3 single point of the molecule with dimer basis set
| 26> $new_job
| 27> %base "3-76_DFT_A"
| 28> ! wB97X-D3 def2-TZVP TIGHTSCF CHELPG PMODEL
| 29>
| 30> %scf
| 31> MaxIter 1000
| 32> end
| 33>
| 34> * xyz 0 1
| 35>   C                      -4.944868            -6.379908            -6.736573
| 36>   O                      -6.142319            -5.643729            -6.610150
| 37>   H                      -6.328640            -5.442620            -7.501184
| 38>   H                      -4.130525            -5.985907            -6.044649
| 39>   H                      -5.172011            -7.357734            -6.328079
| 40>   H                      -4.478197            -6.584611            -7.685240
| 41>   C                    : -0.476334            -6.443746            -10.023954
| 42>   O                    : -1.875961            -6.487827            -9.636245
| 43>   H                    : -1.998111            -5.789325            -8.966662
| 44>   H                    : 0.182757             -6.617556            -9.120200
| 45>   H                    : -0.286599            -7.294597            -10.680926
| 46>   H                    : -0.244265            -5.575583            -10.590777
| 47> *
| 48>
| 49> #Run DFT-D3 single point of the particle with dimer basis set
| 50> $new_job
| 51> %base "3-76_DFT_B"
| 52> ! wB97X-D3 def2-TZVP TIGHTSCF CHELPG PMODEL
| 53>
| 54> %scf
| 55> MaxIter 1000
| 56> end
| 57>
| 58> * xyz 0 1
| 59>   C                    : -4.944868            -6.379908            -6.736573
| 60>   O                    : -6.142319            -5.643729            -6.610150
| 61>   H                    : -6.328640            -5.442620            -7.501184
| 62>   H                    : -4.130525            -5.985907            -6.044649
| 63>   H                    : -5.172011            -7.357734            -6.328079
| 64>   H                    : -4.478197            -6.584611            -7.685240
| 65>   C                      -0.476334            -6.443746            -10.023954
| 66>   O                      -1.875961            -6.487827            -9.636245
| 67>   H                      -1.998111            -5.789325            -8.966662
| 68>   H                      0.182757             -6.617556            -9.120200
| 69>   H                      -0.286599            -7.294597            -10.680926
| 70>   H                      -0.244265            -5.575583            -10.590777
| 71> *
| 72>
| 73>                          ****END OF INPUT****
 Total Charge           Charge          ....    0
 Multiplicity           Mult            ....    1
 Number of Electrons    NEL             ....   36
Dispersion correction           -0.001010984
FINAL SINGLE POINT ENERGY      -231.461957714973
Dispersion correction           -0.000252383
FINAL SINGLE POINT ENERGY      -115.726730514851

CARTESIAN COORDINATES (ANGSTROEM)
---------------------------------
  C     -4.944868   -6.379908   -6.736573
  O     -6.142319   -5.643729   -6.610150
  H     -6.328640   -5.442620   -7.501184
  H     -4.130525   -5.985907   -6.044649
  H     -5.172011   -7.357734   -6.328079
  H     -4.478197   -6.584611   -7.685240
  C     -0.476334   -6.443746  -10.023954
  O     -1.875961   -6.487827   -9.636245
  H     -1.998111   -5.789325   -8.966662
  H      0.182757   -6.617556   -9.120200
  H     -0.286599   -7.294597  -10.680926
  H     -0.244265   -5.575583  -10.590777

 Multiplicity           Mult            ....    1
 Number of Electrons    NEL             ....   18
 Basis Dimension        Dim             ....  172

ORBITAL ENERGIES
----------------

  NO   OCC          E(Eh)            E(eV)
   0   2.0000     -19.231062      -523.3038
   1   2.0000     -10.316473      -280.7255
   2   2.0000      -1.122058       -30.5327
   3   2.0000      -0.795378       -21.6433
   4   2.0000      -0.597265       -16.2524
   5   2.0000      -0.546338       -14.8666
   6   2.0000      -0.519450       -14.1350
   7   2.0000      -0.432590       -11.7714
   8   2.0000      -0.376998       -10.2586
   9   0.0000       0.084472         2.2986
  10   0.0000       0.120505         3.2791
  11   0.0000       0.150304         4.0900
  12   0.0000       0.172482         4.6935
  13   0.0000       0.195892         5.3305

MULLIKEN ATOMIC CHARGES
-----------------------
   0 C :    0.000367
   1 O :   -0.000017
   2 H :   -0.000005
   3 H :   -0.000017
   4 H :   -0.000015
   5 H :   -0.002927
   6 C :   -0.177038
   7 O :   -0.479222
   8 H :    0.315052
   9 H :    0.105678
  10 H :    0.122716
  11 H :    0.115429
Sum of atomic charges:   -0.0000000

LOEWDIN ATOMIC CHARGES
----------------------
   0 C :   -0.000804
   1 O :   -0.000010
   2 H :   -0.000001
   3 H :   -0.000083
   4 H :   -0.000004
   5 H :   -0.001649
   6 C :   -0.361065
   7 O :   -0.112629
   8 H :    0.173832
   9 H :    0.104407
  10 H :    0.108809
  11 H :    0.089197

  Mayer bond orders larger than 0.1
B(  6-C ,  7-O ) :   0.9953 B(  6-C ,  9-H ) :   0.9767 B(  6-C , 10-H ) :   0.9749
B(  6-C , 11-H ) :   0.9703 B(  7-O ,  8-H ) :   0.8983

Dispersion correction           -0.000254748
FINAL SINGLE POINT ENERGY      -115.734026492308

DIPOLE MOMENT
-------------
                                X             Y             Z
Electronic contribution:     -1.74125      -0.05196       0.34849
Nuclear contribution   :      2.25085       0.49040      -0.11932
                        -----------------------------------------
Total Dipole Moment    :      0.50960       0.43844       0.22918
                        -----------------------------------------
Magnitude (a.u.)       :      0.71024
Magnitude (Debye)      :      1.80529

Rotational constants in cm-1:     4.210442     0.794213     0.773104
Rotational constants in MHz : 126225.875205 23809.892334 23177.072612

                             ****ORCA TERMINATED NORMALLY****
TOTAL RUN TIME: 0 days 0 hours 6 minutes 24 seconds 207 msec
