                         Program Version 4.1.2  - RELEASE  -
|  1> #Run DFT-D3 single point of the dimer
|  2> ! wB97X-D3 def2-TZVP TIGHTSCF CHELPG PMODEL PAL8
|  3>
|  4> %base "22-11_DFT_AB"
|  5>
|  6> %scf
|  7> MaxIter 1000
|  8> end
|  9>
| 10> * xyz 0 1
| 11>   C                      -0.723120            -11.332098           -10.399083
| 12>   O                      -0.595115            -10.311008           -11.360115
| 13>   H                      -0.463579            -9.482378            -10.877371
| 14>   H                      0.148518             -11.591512           -9.878581
| 15>   H                      -1.510318            -11.025015           -9.697890
| 16>   H                      -1.046432            -12.280679           -10.870928
| 17>   C                      -1.633696            -5.345142            -10.254065
| 18>   O                      -0.942246            -6.063928            -11.213519
| 19>   H                      -0.036436            -5.842456            -11.082899
| 20>   H                      -1.650345            -5.955789            -9.304963
| 21>   H                      -1.057373            -4.423185            -10.144738
| 22>   H                      -2.719474            -5.127904            -10.542702
| 23> *
| 24>
| 25> #Run DFT-D3 single point of the molecule with dimer basis set
| 26> $new_job
| 27> %base "22-11_DFT_A"
| 28> ! wB97X-D3 def2-TZVP TIGHTSCF CHELPG PMODEL
| 29>
| 30> %scf
| 31> MaxIter 1000
| 32> end
| 33>
| 34> * xyz 0 1
| 35>   C                      -0.723120            -11.332098           -10.399083
| 36>   O                      -0.595115            -10.311008           -11.360115
| 37>   H                      -0.463579            -9.482378            -10.877371
| 38>   H                      0.148518             -11.591512           -9.878581
| 39>   H                      -1.510318            -11.025015           -9.697890
| 40>   H                      -1.046432            -12.280679           -10.870928
| 41>   C                    : -1.633696            -5.345142            -10.254065
| 42>   O                    : -0.942246            -6.063928            -11.213519
| 43>   H                    : -0.036436            -5.842456            -11.082899
| 44>   H                    : -1.650345            -5.955789            -9.304963
| 45>   H                    : -1.057373            -4.423185            -10.144738
| 46>   H                    : -2.719474            -5.127904            -10.542702
| 47> *
| 48>
| 49> #Run DFT-D3 single point of the particle with dimer basis set
| 50> $new_job
| 51> %base "22-11_DFT_B"
| 52> ! wB97X-D3 def2-TZVP TIGHTSCF CHELPG PMODEL
| 53>
| 54> %scf
| 55> MaxIter 1000
| 56> end
| 57>
| 58> * xyz 0 1
| 59>   C                    : -0.723120            -11.332098           -10.399083
| 60>   O                    : -0.595115            -10.311008           -11.360115
| 61>   H                    : -0.463579            -9.482378            -10.877371
| 62>   H                    : 0.148518             -11.591512           -9.878581
| 63>   H                    : -1.510318            -11.025015           -9.697890
| 64>   H                    : -1.046432            -12.280679           -10.870928
| 65>   C                      -1.633696            -5.345142            -10.254065
| 66>   O                      -0.942246            -6.063928            -11.213519
| 67>   H                      -0.036436            -5.842456            -11.082899
| 68>   H                      -1.650345            -5.955789            -9.304963
| 69>   H                      -1.057373            -4.423185            -10.144738
| 70>   H                      -2.719474            -5.127904            -10.542702
| 71> *
| 72>
| 73>                          ****END OF INPUT****
 Total Charge           Charge          ....    0
 Multiplicity           Mult            ....    1
 Number of Electrons    NEL             ....   36
Dispersion correction           -0.000794233
FINAL SINGLE POINT ENERGY      -231.463988774614
Dispersion correction           -0.000231315
FINAL SINGLE POINT ENERGY      -115.733767215257

CARTESIAN COORDINATES (ANGSTROEM)
---------------------------------
  C     -0.723120  -11.332098  -10.399083
  O     -0.595115  -10.311008  -11.360115
  H     -0.463579   -9.482378  -10.877371
  H      0.148518  -11.591512   -9.878581
  H     -1.510318  -11.025015   -9.697890
  H     -1.046432  -12.280679  -10.870928
  C     -1.633696   -5.345142  -10.254065
  O     -0.942246   -6.063928  -11.213519
  H     -0.036436   -5.842456  -11.082899
  H     -1.650345   -5.955789   -9.304963
  H     -1.057373   -4.423185  -10.144738
  H     -2.719474   -5.127904  -10.542702

 Multiplicity           Mult            ....    1
 Number of Electrons    NEL             ....   18
 Basis Dimension        Dim             ....  172

ORBITAL ENERGIES
----------------

  NO   OCC          E(Eh)            E(eV)
   0   2.0000     -19.226754      -523.1866
   1   2.0000     -10.320102      -280.8242
   2   2.0000      -1.152536       -31.3621
   3   2.0000      -0.786042       -21.3893
   4   2.0000      -0.616228       -16.7684
   5   2.0000      -0.546837       -14.8802
   6   2.0000      -0.532668       -14.4946
   7   2.0000      -0.429459       -11.6862
   8   2.0000      -0.369143       -10.0449
   9   0.0000       0.092005         2.5036
  10   0.0000       0.112704         3.0668
  11   0.0000       0.156727         4.2647
  12   0.0000       0.173624         4.7245
  13   0.0000       0.198213         5.3936

MULLIKEN ATOMIC CHARGES
-----------------------
   0 C :    0.000381
   1 O :    0.000361
   2 H :   -0.003919
   3 H :   -0.000020
   4 H :   -0.000043
   5 H :    0.000006
   6 C :   -0.156540
   7 O :   -0.457917
   8 H :    0.314293
   9 H :    0.095999
  10 H :    0.095417
  11 H :    0.111982
Sum of atomic charges:    0.0000000

LOEWDIN ATOMIC CHARGES
----------------------
   0 C :   -0.000016
   1 O :   -0.000104
   2 H :   -0.002610
   3 H :   -0.000000
   4 H :   -0.000001
   5 H :   -0.000002
   6 C :   -0.413457
   7 O :   -0.052163
   8 H :    0.161426
   9 H :    0.098571
  10 H :    0.094937
  11 H :    0.113419

  Mayer bond orders larger than 0.1
B(  6-C ,  7-O ) :   0.9977 B(  6-C ,  9-H ) :   0.9742 B(  6-C , 10-H ) :   0.9931
B(  6-C , 11-H ) :   0.9682 B(  7-O ,  8-H ) :   0.9023

Dispersion correction           -0.000215401
FINAL SINGLE POINT ENERGY      -115.729306684098

DIPOLE MOMENT
-------------
                                X             Y             Z
Electronic contribution:      0.74146      -0.93425      -1.32328
Nuclear contribution   :     -0.41252       1.36712       1.74230
                        -----------------------------------------
Total Dipole Moment    :      0.32893       0.43287       0.41902
                        -----------------------------------------
Magnitude (a.u.)       :      0.68640
Magnitude (Debye)      :      1.74470

Rotational constants in cm-1:     4.069712     0.868676     0.836775
Rotational constants in MHz : 122006.903714 26042.250432 25085.883379

                             ****ORCA TERMINATED NORMALLY****
TOTAL RUN TIME: 0 days 0 hours 0 minutes 56 seconds 680 msec
