                         Program Version 4.1.2  - RELEASE  -
|  1> #Run DFT-D3 single point of the dimer
|  2> ! wB97X-D3 def2-TZVP TIGHTSCF CHELPG PMODEL PAL8
|  3>
|  4> %base "2-47_DFT_AB"
|  5>
|  6> %scf
|  7> MaxIter 1000
|  8> end
|  9>
| 10> * xyz 0 1
| 11>   C                      10.671055            10.874247            -6.224414
| 12>   O                      10.291536            10.383988            -7.491126
| 13>   H                      9.343227             10.212276            -7.351278
| 14>   H                      10.128935            11.724972            -5.827825
| 15>   H                      10.741809            10.097136            -5.461721
| 16>   H                      11.702338            11.230933            -6.279712
| 17>   C                      10.946178            6.499316             -4.724918
| 18>   O                      10.963376            6.166861             -3.349450
| 19>   H                      10.187720            6.514946             -2.857216
| 20>   H                      10.592208            7.486626             -4.935436
| 21>   H                      12.020252            6.606879             -5.038450
| 22>   H                      10.293789            5.832369             -5.364102
| 23> *
| 24>
| 25> #Run DFT-D3 single point of the molecule with dimer basis set
| 26> $new_job
| 27> %base "2-47_DFT_A"
| 28> ! wB97X-D3 def2-TZVP TIGHTSCF CHELPG PMODEL
| 29>
| 30> %scf
| 31> MaxIter 1000
| 32> end
| 33>
| 34> * xyz 0 1
| 35>   C                      10.671055            10.874247            -6.224414
| 36>   O                      10.291536            10.383988            -7.491126
| 37>   H                      9.343227             10.212276            -7.351278
| 38>   H                      10.128935            11.724972            -5.827825
| 39>   H                      10.741809            10.097136            -5.461721
| 40>   H                      11.702338            11.230933            -6.279712
| 41>   C                    : 10.946178            6.499316             -4.724918
| 42>   O                    : 10.963376            6.166861             -3.349450
| 43>   H                    : 10.187720            6.514946             -2.857216
| 44>   H                    : 10.592208            7.486626             -4.935436
| 45>   H                    : 12.020252            6.606879             -5.038450
| 46>   H                    : 10.293789            5.832369             -5.364102
| 47> *
| 48>
| 49> #Run DFT-D3 single point of the particle with dimer basis set
| 50> $new_job
| 51> %base "2-47_DFT_B"
| 52> ! wB97X-D3 def2-TZVP TIGHTSCF CHELPG PMODEL
| 53>
| 54> %scf
| 55> MaxIter 1000
| 56> end
| 57>
| 58> * xyz 0 1
| 59>   C                    : 10.671055            10.874247            -6.224414
| 60>   O                    : 10.291536            10.383988            -7.491126
| 61>   H                    : 9.343227             10.212276            -7.351278
| 62>   H                    : 10.128935            11.724972            -5.827825
| 63>   H                    : 10.741809            10.097136            -5.461721
| 64>   H                    : 11.702338            11.230933            -6.279712
| 65>   C                      10.946178            6.499316             -4.724918
| 66>   O                      10.963376            6.166861             -3.349450
| 67>   H                      10.187720            6.514946             -2.857216
| 68>   H                      10.592208            7.486626             -4.935436
| 69>   H                      12.020252            6.606879             -5.038450
| 70>   H                      10.293789            5.832369             -5.364102
| 71> *
| 72>
| 73>                          ****END OF INPUT****
 Total Charge           Charge          ....    0
 Multiplicity           Mult            ....    1
 Number of Electrons    NEL             ....   36
Dispersion correction           -0.001099916
FINAL SINGLE POINT ENERGY      -231.464207216071
Dispersion correction           -0.000240755
FINAL SINGLE POINT ENERGY      -115.733538326130

CARTESIAN COORDINATES (ANGSTROEM)
---------------------------------
  C     10.671055   10.874247   -6.224414
  O     10.291536   10.383988   -7.491126
  H      9.343227   10.212276   -7.351278
  H     10.128935   11.724972   -5.827825
  H     10.741809   10.097136   -5.461721
  H     11.702338   11.230933   -6.279712
  C     10.946178    6.499316   -4.724918
  O     10.963376    6.166861   -3.349450
  H     10.187720    6.514946   -2.857216
  H     10.592208    7.486626   -4.935436
  H     12.020252    6.606879   -5.038450
  H     10.293789    5.832369   -5.364102

 Multiplicity           Mult            ....    1
 Number of Electrons    NEL             ....   18
 Basis Dimension        Dim             ....  172

ORBITAL ENERGIES
----------------

  NO   OCC          E(Eh)            E(eV)
   0   2.0000     -19.231868      -523.3257
   1   2.0000     -10.317859      -280.7632
   2   2.0000      -1.128931       -30.7198
   3   2.0000      -0.793944       -21.6043
   4   2.0000      -0.613766       -16.7014
   5   2.0000      -0.542272       -14.7560
   6   2.0000      -0.513456       -13.9719
   7   2.0000      -0.424806       -11.5596
   8   2.0000      -0.374884       -10.2011
   9   0.0000       0.082141         2.2352
  10   0.0000       0.116053         3.1580
  11   0.0000       0.149257         4.0615
  12   0.0000       0.161568         4.3965
  13   0.0000       0.186417         5.0727

MULLIKEN ATOMIC CHARGES
-----------------------
   0 C :   -0.001762
   1 O :    0.000084
   2 H :   -0.000012
   3 H :    0.000026
   4 H :    0.002227
   5 H :    0.000067
   6 C :   -0.148033
   7 O :   -0.485797
   8 H :    0.318834
   9 H :    0.099105
  10 H :    0.117954
  11 H :    0.097307
Sum of atomic charges:    0.0000000

LOEWDIN ATOMIC CHARGES
----------------------
   0 C :   -0.001111
   1 O :   -0.000019
   2 H :   -0.000050
   3 H :   -0.000006
   4 H :   -0.002293
   5 H :   -0.000009
   6 C :   -0.393633
   7 O :   -0.089132
   8 H :    0.179521
   9 H :    0.088651
  10 H :    0.117396
  11 H :    0.100686

  Mayer bond orders larger than 0.1
B(  6-C ,  7-O ) :   1.0020 B(  6-C ,  9-H ) :   0.9763 B(  6-C , 10-H ) :   0.9754
B(  6-C , 11-H ) :   0.9664 B(  7-O ,  8-H ) :   0.8910

Dispersion correction           -0.000273177
FINAL SINGLE POINT ENERGY      -115.730224485505

DIPOLE MOMENT
-------------
                                X             Y             Z
Electronic contribution:      0.09021      -0.56547       1.76982
Nuclear contribution   :     -0.59827       0.98405      -1.98971
                        -----------------------------------------
Total Dipole Moment    :     -0.50806       0.41858      -0.21989
                        -----------------------------------------
Magnitude (a.u.)       :      0.69404
Magnitude (Debye)      :      1.76410

Rotational constants in cm-1:     4.273789     0.813871     0.789600
Rotational constants in MHz : 128124.980642 24399.225638 23671.598215

                             ****ORCA TERMINATED NORMALLY****
TOTAL RUN TIME: 0 days 0 hours 5 minutes 51 seconds 563 msec
