                         Program Version 4.1.2  - RELEASE  -
|  1> #Run DFT-D3 single point of the dimer
|  2> ! wB97X-D3 def2-TZVP TIGHTSCF CHELPG PMODEL PAL8
|  3>
|  4> %base "6-177_DFT_AB"
|  5>
|  6> %scf
|  7> MaxIter 1000
|  8> end
|  9>
| 10> * xyz 0 1
| 11>   C                      -2.431959            -3.800440            -10.436812
| 12>   O                      -3.069579            -2.759655            -9.855939
| 13>   H                      -3.468197            -2.235065            -10.555504
| 14>   H                      -1.959090            -4.364223            -9.560604
| 15>   H                      -3.197361            -4.457196            -10.887055
| 16>   H                      -1.568748            -3.513289            -11.072070
| 17>   C                      -0.073123            -1.446190            -8.216808
| 18>   O                      -1.511276            -1.386033            -7.972228
| 19>   H                      -1.960776            -1.925502            -8.635251
| 20>   H                      0.244114             -2.511909            -8.329340
| 21>   H                      0.238899             -0.965654            -9.158565
| 22>   H                      0.527147             -0.841932            -7.501318
| 23> *
| 24>
| 25> #Run DFT-D3 single point of the molecule with dimer basis set
| 26> $new_job
| 27> %base "6-177_DFT_A"
| 28> ! wB97X-D3 def2-TZVP TIGHTSCF CHELPG PMODEL
| 29>
| 30> %scf
| 31> MaxIter 1000
| 32> end
| 33>
| 34> * xyz 0 1
| 35>   C                      -2.431959            -3.800440            -10.436812
| 36>   O                      -3.069579            -2.759655            -9.855939
| 37>   H                      -3.468197            -2.235065            -10.555504
| 38>   H                      -1.959090            -4.364223            -9.560604
| 39>   H                      -3.197361            -4.457196            -10.887055
| 40>   H                      -1.568748            -3.513289            -11.072070
| 41>   C                    : -0.073123            -1.446190            -8.216808
| 42>   O                    : -1.511276            -1.386033            -7.972228
| 43>   H                    : -1.960776            -1.925502            -8.635251
| 44>   H                    : 0.244114             -2.511909            -8.329340
| 45>   H                    : 0.238899             -0.965654            -9.158565
| 46>   H                    : 0.527147             -0.841932            -7.501318
| 47> *
| 48>
| 49> #Run DFT-D3 single point of the particle with dimer basis set
| 50> $new_job
| 51> %base "6-177_DFT_B"
| 52> ! wB97X-D3 def2-TZVP TIGHTSCF CHELPG PMODEL
| 53>
| 54> %scf
| 55> MaxIter 1000
| 56> end
| 57>
| 58> * xyz 0 1
| 59>   C                    : -2.431959            -3.800440            -10.436812
| 60>   O                    : -3.069579            -2.759655            -9.855939
| 61>   H                    : -3.468197            -2.235065            -10.555504
| 62>   H                    : -1.959090            -4.364223            -9.560604
| 63>   H                    : -3.197361            -4.457196            -10.887055
| 64>   H                    : -1.568748            -3.513289            -11.072070
| 65>   C                      -0.073123            -1.446190            -8.216808
| 66>   O                      -1.511276            -1.386033            -7.972228
| 67>   H                      -1.960776            -1.925502            -8.635251
| 68>   H                      0.244114             -2.511909            -8.329340
| 69>   H                      0.238899             -0.965654            -9.158565
| 70>   H                      0.527147             -0.841932            -7.501318
| 71> *
| 72>
| 73>                          ****END OF INPUT****
 Total Charge           Charge          ....    0
 Multiplicity           Mult            ....    1
 Number of Electrons    NEL             ....   36
Dispersion correction           -0.001988375
FINAL SINGLE POINT ENERGY      -231.468445442465
Dispersion correction           -0.000217043
FINAL SINGLE POINT ENERGY      -115.730549655864

CARTESIAN COORDINATES (ANGSTROEM)
---------------------------------
  C     -2.431959   -3.800440  -10.436812
  O     -3.069579   -2.759655   -9.855939
  H     -3.468197   -2.235065  -10.555504
  H     -1.959090   -4.364223   -9.560604
  H     -3.197361   -4.457196  -10.887055
  H     -1.568748   -3.513289  -11.072070
  C     -0.073123   -1.446190   -8.216808
  O     -1.511276   -1.386033   -7.972228
  H     -1.960776   -1.925502   -8.635251
  H      0.244114   -2.511909   -8.329340
  H      0.238899   -0.965654   -9.158565
  H      0.527147   -0.841932   -7.501318

 Multiplicity           Mult            ....    1
 Number of Electrons    NEL             ....   18
 Basis Dimension        Dim             ....  172

ORBITAL ENERGIES
----------------

  NO   OCC          E(Eh)            E(eV)
   0   2.0000     -19.233307      -523.3649
   1   2.0000     -10.324034      -280.9312
   2   2.0000      -1.122434       -30.5430
   3   2.0000      -0.795423       -21.6446
   4   2.0000      -0.603266       -16.4157
   5   2.0000      -0.540475       -14.7071
   6   2.0000      -0.514073       -13.9886
   7   2.0000      -0.436527       -11.8785
   8   2.0000      -0.373604       -10.1663
   9   0.0000       0.067146         1.8271
  10   0.0000       0.134683         3.6649
  11   0.0000       0.145539         3.9603
  12   0.0000       0.160815         4.3760
  13   0.0000       0.190835         5.1929

MULLIKEN ATOMIC CHARGES
-----------------------
   0 C :   -0.002727
   1 O :   -0.003418
   2 H :   -0.000384
   3 H :   -0.000575
   4 H :   -0.000210
   5 H :    0.000331
   6 C :   -0.179747
   7 O :   -0.473996
   8 H :    0.315120
   9 H :    0.110525
  10 H :    0.104909
  11 H :    0.130172
Sum of atomic charges:   -0.0000000

LOEWDIN ATOMIC CHARGES
----------------------
   0 C :   -0.007445
   1 O :   -0.023705
   2 H :   -0.001772
   3 H :   -0.001170
   4 H :   -0.000170
   5 H :   -0.000334
   6 C :   -0.363005
   7 O :   -0.095913
   8 H :    0.182148
   9 H :    0.101708
  10 H :    0.095640
  11 H :    0.114019

  Mayer bond orders larger than 0.1
B(  6-C ,  7-O ) :   0.9883 B(  6-C ,  9-H ) :   0.9770 B(  6-C , 10-H ) :   0.9705
B(  6-C , 11-H ) :   0.9714 B(  7-O ,  8-H ) :   0.9054

Dispersion correction           -0.000275350
FINAL SINGLE POINT ENERGY      -115.730634297677

DIPOLE MOMENT
-------------
                                X             Y             Z
Electronic contribution:     -1.81468       0.14827       0.54605
Nuclear contribution   :      2.14469      -0.48951      -1.07715
                        -----------------------------------------
Total Dipole Moment    :      0.33001      -0.34124      -0.53110
                        -----------------------------------------
Magnitude (a.u.)       :      0.71234
Magnitude (Debye)      :      1.81062

Rotational constants in cm-1:     4.267628     0.781969     0.747497
Rotational constants in MHz : 127940.263018 23442.844439 22409.396453

                             ****ORCA TERMINATED NORMALLY****
TOTAL RUN TIME: 0 days 0 hours 1 minutes 9 seconds 43 msec
