                         Program Version 4.1.2  - RELEASE  -
|  1> #Run DFT-D3 single point of the dimer
|  2> ! wB97X-D3 def2-TZVP TIGHTSCF CHELPG PMODEL PAL8
|  3>
|  4> %base "8-106_DFT_AB"
|  5>
|  6> %scf
|  7> MaxIter 1000
|  8> end
|  9>
| 10> * xyz 0 1
| 11>   C                      -5.195719            -0.427144            9.365506
| 12>   O                      -6.124433            -1.080566            10.163934
| 13>   H                      -6.539004            -1.747450            9.631112
| 14>   H                      -5.596017            -0.049719            8.423426
| 15>   H                      -4.831508            0.366167             9.977338
| 16>   H                      -4.342301            -1.112926            9.156067
| 17>   C                      -3.416509            0.561746             6.178986
| 18>   O                      -3.117772            -0.768218            6.360640
| 19>   H                      -2.176057            -0.872464            6.246538
| 20>   H                      -2.936048            1.057146             5.309851
| 21>   H                      -4.524831            0.648276             6.120792
| 22>   H                      -3.135367            1.118385             7.059823
| 23> *
| 24>
| 25> #Run DFT-D3 single point of the molecule with dimer basis set
| 26> $new_job
| 27> %base "8-106_DFT_A"
| 28> ! wB97X-D3 def2-TZVP TIGHTSCF CHELPG PMODEL
| 29>
| 30> %scf
| 31> MaxIter 1000
| 32> end
| 33>
| 34> * xyz 0 1
| 35>   C                      -5.195719            -0.427144            9.365506
| 36>   O                      -6.124433            -1.080566            10.163934
| 37>   H                      -6.539004            -1.747450            9.631112
| 38>   H                      -5.596017            -0.049719            8.423426
| 39>   H                      -4.831508            0.366167             9.977338
| 40>   H                      -4.342301            -1.112926            9.156067
| 41>   C                    : -3.416509            0.561746             6.178986
| 42>   O                    : -3.117772            -0.768218            6.360640
| 43>   H                    : -2.176057            -0.872464            6.246538
| 44>   H                    : -2.936048            1.057146             5.309851
| 45>   H                    : -4.524831            0.648276             6.120792
| 46>   H                    : -3.135367            1.118385             7.059823
| 47> *
| 48>
| 49> #Run DFT-D3 single point of the particle with dimer basis set
| 50> $new_job
| 51> %base "8-106_DFT_B"
| 52> ! wB97X-D3 def2-TZVP TIGHTSCF CHELPG PMODEL
| 53>
| 54> %scf
| 55> MaxIter 1000
| 56> end
| 57>
| 58> * xyz 0 1
| 59>   C                    : -5.195719            -0.427144            9.365506
| 60>   O                    : -6.124433            -1.080566            10.163934
| 61>   H                    : -6.539004            -1.747450            9.631112
| 62>   H                    : -5.596017            -0.049719            8.423426
| 63>   H                    : -4.831508            0.366167             9.977338
| 64>   H                    : -4.342301            -1.112926            9.156067
| 65>   C                      -3.416509            0.561746             6.178986
| 66>   O                      -3.117772            -0.768218            6.360640
| 67>   H                      -2.176057            -0.872464            6.246538
| 68>   H                      -2.936048            1.057146             5.309851
| 69>   H                      -4.524831            0.648276             6.120792
| 70>   H                      -3.135367            1.118385             7.059823
| 71> *
| 72>
| 73>                          ****END OF INPUT****
 Total Charge           Charge          ....    0
 Multiplicity           Mult            ....    1
 Number of Electrons    NEL             ....   36
Dispersion correction           -0.001730765
FINAL SINGLE POINT ENERGY      -231.472141632347
Dispersion correction           -0.000220311
FINAL SINGLE POINT ENERGY      -115.735608056484

CARTESIAN COORDINATES (ANGSTROEM)
---------------------------------
  C     -5.195719   -0.427144    9.365506
  O     -6.124433   -1.080566   10.163934
  H     -6.539004   -1.747450    9.631112
  H     -5.596017   -0.049719    8.423426
  H     -4.831508    0.366167    9.977338
  H     -4.342301   -1.112926    9.156067
  C     -3.416509    0.561746    6.178986
  O     -3.117772   -0.768218    6.360640
  H     -2.176057   -0.872464    6.246538
  H     -2.936048    1.057146    5.309851
  H     -4.524831    0.648276    6.120792
  H     -3.135367    1.118385    7.059823

 Multiplicity           Mult            ....    1
 Number of Electrons    NEL             ....   18
 Basis Dimension        Dim             ....  172

ORBITAL ENERGIES
----------------

  NO   OCC          E(Eh)            E(eV)
   0   2.0000     -19.230590      -523.2910
   1   2.0000     -10.310948      -280.5752
   2   2.0000      -1.151022       -31.3209
   3   2.0000      -0.793010       -21.5789
   4   2.0000      -0.620518       -16.8852
   5   2.0000      -0.544417       -14.8143
   6   2.0000      -0.529651       -14.4125
   7   2.0000      -0.433866       -11.8061
   8   2.0000      -0.370779       -10.0894
   9   0.0000       0.091830         2.4988
  10   0.0000       0.122626         3.3368
  11   0.0000       0.153453         4.1757
  12   0.0000       0.173287         4.7154
  13   0.0000       0.189624         5.1599

MULLIKEN ATOMIC CHARGES
-----------------------
   0 C :    0.005150
   1 O :    0.000035
   2 H :   -0.000016
   3 H :   -0.000818
   4 H :   -0.000550
   5 H :   -0.005650
   6 C :   -0.167193
   7 O :   -0.462064
   8 H :    0.312682
   9 H :    0.103421
  10 H :    0.113463
  11 H :    0.101540
Sum of atomic charges:   -0.0000000

LOEWDIN ATOMIC CHARGES
----------------------
   0 C :   -0.003689
   1 O :   -0.000024
   2 H :   -0.000002
   3 H :   -0.001999
   4 H :   -0.000148
   5 H :   -0.003511
   6 C :   -0.419265
   7 O :   -0.040238
   8 H :    0.168511
   9 H :    0.096218
  10 H :    0.113840
  11 H :    0.090308

  Mayer bond orders larger than 0.1
B(  6-C ,  7-O ) :   0.9978 B(  6-C ,  9-H ) :   0.9688 B(  6-C , 10-H ) :   0.9754
B(  6-C , 11-H ) :   0.9823 B(  7-O ,  8-H ) :   0.8999

Dispersion correction           -0.000226281
FINAL SINGLE POINT ENERGY      -115.734922952939

DIPOLE MOMENT
-------------
                                X             Y             Z
Electronic contribution:      0.31907      -1.81535       0.18128
Nuclear contribution   :      0.17500       2.23988      -0.32177
                        -----------------------------------------
Total Dipole Moment    :      0.49407       0.42454      -0.14050
                        -----------------------------------------
Magnitude (a.u.)       :      0.66639
Magnitude (Debye)      :      1.69382

Rotational constants in cm-1:     4.275296     0.872511     0.833419
Rotational constants in MHz : 128170.138051 26157.236417 24985.262500

                             ****ORCA TERMINATED NORMALLY****
TOTAL RUN TIME: 0 days 0 hours 0 minutes 43 seconds 242 msec
