                         Program Version 4.1.2  - RELEASE  -
|  1> #Run DFT-D3 single point of the dimer
|  2> ! wB97X-D3 def2-TZVP TIGHTSCF CHELPG PMODEL PAL8
|  3>
|  4> %base "2-63_DFT_AB"
|  5>
|  6> %scf
|  7> MaxIter 1000
|  8> end
|  9>
| 10> * xyz 0 1
| 11>   C                      0.999467             -9.027304            -3.912011
| 12>   O                      2.186414             -9.130388            -3.186209
| 13>   H                      2.083546             -9.885682            -2.567494
| 14>   H                      0.950091             -9.809537            -4.582821
| 15>   H                      0.089306             -9.087572            -3.267712
| 16>   H                      0.963477             -8.154280            -4.573107
| 17>   C                      1.119483             -6.538144            -0.680068
| 18>   O                      0.417428             -7.307162            -1.618554
| 19>   H                      0.481454             -6.720103            -2.408740
| 20>   H                      2.192324             -6.606482            -0.857920
| 21>   H                      0.863229             -5.464750            -0.748779
| 22>   H                      0.923597             -6.843216            0.363821
| 23> *
| 24>
| 25> #Run DFT-D3 single point of the molecule with dimer basis set
| 26> $new_job
| 27> %base "2-63_DFT_A"
| 28> ! wB97X-D3 def2-TZVP TIGHTSCF CHELPG PMODEL
| 29>
| 30> %scf
| 31> MaxIter 1000
| 32> end
| 33>
| 34> * xyz 0 1
| 35>   C                      0.999467             -9.027304            -3.912011
| 36>   O                      2.186414             -9.130388            -3.186209
| 37>   H                      2.083546             -9.885682            -2.567494
| 38>   H                      0.950091             -9.809537            -4.582821
| 39>   H                      0.089306             -9.087572            -3.267712
| 40>   H                      0.963477             -8.154280            -4.573107
| 41>   C                    : 1.119483             -6.538144            -0.680068
| 42>   O                    : 0.417428             -7.307162            -1.618554
| 43>   H                    : 0.481454             -6.720103            -2.408740
| 44>   H                    : 2.192324             -6.606482            -0.857920
| 45>   H                    : 0.863229             -5.464750            -0.748779
| 46>   H                    : 0.923597             -6.843216            0.363821
| 47> *
| 48>
| 49> #Run DFT-D3 single point of the particle with dimer basis set
| 50> $new_job
| 51> %base "2-63_DFT_B"
| 52> ! wB97X-D3 def2-TZVP TIGHTSCF CHELPG PMODEL
| 53>
| 54> %scf
| 55> MaxIter 1000
| 56> end
| 57>
| 58> * xyz 0 1
| 59>   C                    : 0.999467             -9.027304            -3.912011
| 60>   O                    : 2.186414             -9.130388            -3.186209
| 61>   H                    : 2.083546             -9.885682            -2.567494
| 62>   H                    : 0.950091             -9.809537            -4.582821
| 63>   H                    : 0.089306             -9.087572            -3.267712
| 64>   H                    : 0.963477             -8.154280            -4.573107
| 65>   C                      1.119483             -6.538144            -0.680068
| 66>   O                      0.417428             -7.307162            -1.618554
| 67>   H                      0.481454             -6.720103            -2.408740
| 68>   H                      2.192324             -6.606482            -0.857920
| 69>   H                      0.863229             -5.464750            -0.748779
| 70>   H                      0.923597             -6.843216            0.363821
| 71> *
| 72>
| 73>                          ****END OF INPUT****
 Total Charge           Charge          ....    0
 Multiplicity           Mult            ....    1
 Number of Electrons    NEL             ....   36
Dispersion correction           -0.002010606
FINAL SINGLE POINT ENERGY      -231.464597346126
Dispersion correction           -0.000223826
FINAL SINGLE POINT ENERGY      -115.730932139133

CARTESIAN COORDINATES (ANGSTROEM)
---------------------------------
  C      0.999467   -9.027304   -3.912011
  O      2.186414   -9.130388   -3.186209
  H      2.083546   -9.885682   -2.567494
  H      0.950091   -9.809537   -4.582821
  H      0.089306   -9.087572   -3.267712
  H      0.963477   -8.154280   -4.573107
  C      1.119483   -6.538144   -0.680068
  O      0.417428   -7.307162   -1.618554
  H      0.481454   -6.720103   -2.408740
  H      2.192324   -6.606482   -0.857920
  H      0.863229   -5.464750   -0.748779
  H      0.923597   -6.843216    0.363821

 Multiplicity           Mult            ....    1
 Number of Electrons    NEL             ....   18
 Basis Dimension        Dim             ....  172

ORBITAL ENERGIES
----------------

  NO   OCC          E(Eh)            E(eV)
   0   2.0000     -19.237427      -523.4770
   1   2.0000     -10.314465      -280.6709
   2   2.0000      -1.142533       -31.0899
   3   2.0000      -0.788902       -21.4671
   4   2.0000      -0.611414       -16.6374
   5   2.0000      -0.543629       -14.7929
   6   2.0000      -0.528606       -14.3841
   7   2.0000      -0.440184       -11.9780
   8   2.0000      -0.373623       -10.1668
   9   0.0000       0.087886         2.3915
  10   0.0000       0.128270         3.4904
  11   0.0000       0.149362         4.0643
  12   0.0000       0.177266         4.8236
  13   0.0000       0.193930         5.2771

MULLIKEN ATOMIC CHARGES
-----------------------
   0 C :   -0.016528
   1 O :    0.004496
   2 H :   -0.000909
   3 H :   -0.001525
   4 H :   -0.003299
   5 H :    0.000655
   6 C :   -0.191462
   7 O :   -0.439950
   8 H :    0.320932
   9 H :    0.106444
  10 H :    0.103595
  11 H :    0.117550
Sum of atomic charges:    0.0000000

LOEWDIN ATOMIC CHARGES
----------------------
   0 C :   -0.024602
   1 O :   -0.005427
   2 H :   -0.001624
   3 H :   -0.000400
   4 H :   -0.009821
   5 H :   -0.001674
   6 C :   -0.406830
   7 O :   -0.045149
   8 H :    0.197032
   9 H :    0.093098
  10 H :    0.096630
  11 H :    0.108766

  Mayer bond orders larger than 0.1
B(  6-C ,  7-O ) :   1.0047 B(  6-C ,  9-H ) :   0.9730 B(  6-C , 10-H ) :   0.9799
B(  6-C , 11-H ) :   0.9735 B(  7-O ,  8-H ) :   0.8937

Dispersion correction           -0.000219972
FINAL SINGLE POINT ENERGY      -115.733814550967

DIPOLE MOMENT
-------------
                                X             Y             Z
Electronic contribution:     -1.00555      -1.19928      -1.09863
Nuclear contribution   :      1.29609       1.85988       0.98818
                        -----------------------------------------
Total Dipole Moment    :      0.29054       0.66059      -0.11045
                        -----------------------------------------
Magnitude (a.u.)       :      0.73007
Magnitude (Debye)      :      1.85568

Rotational constants in cm-1:     4.187933     0.848688     0.811600
Rotational constants in MHz : 125551.065411 25443.034773 24331.145871

                             ****ORCA TERMINATED NORMALLY****
TOTAL RUN TIME: 0 days 0 hours 5 minutes 56 seconds 776 msec
