                         Program Version 4.1.2  - RELEASE  -
|  1> #Run DFT-D3 single point of the dimer
|  2> ! wB97X-D3 def2-TZVP TIGHTSCF CHELPG PMODEL PAL8
|  3>
|  4> %base "1-16_DFT_AB"
|  5>
|  6> %scf
|  7> MaxIter 1000
|  8> end
|  9>
| 10> * xyz 0 1
| 11>   C                      -2.881200            5.269052             1.066537
| 12>   O                      -2.445104            4.075524             0.341486
| 13>   H                      -2.756895            4.205874             -0.534556
| 14>   H                      -3.832270            5.165989             1.402556
| 15>   H                      -2.191036            5.618454             1.900053
| 16>   H                      -2.957396            6.094008             0.292697
| 17>   C                      -7.546642            5.310844             -2.485952
| 18>   O                      -6.537382            4.702897             -1.704250
| 19>   H                      -6.634103            3.799627             -2.072274
| 20>   H                      -7.343214            5.297082             -3.570693
| 21>   H                      -8.497672            4.889586             -2.433377
| 22>   H                      -7.670592            6.410111             -2.234567
| 23> *
| 24>
| 25> #Run DFT-D3 single point of the molecule with dimer basis set
| 26> $new_job
| 27> %base "1-16_DFT_A"
| 28> ! wB97X-D3 def2-TZVP TIGHTSCF CHELPG PMODEL
| 29>
| 30> %scf
| 31> MaxIter 1000
| 32> end
| 33>
| 34> * xyz 0 1
| 35>   C                      -2.881200            5.269052             1.066537
| 36>   O                      -2.445104            4.075524             0.341486
| 37>   H                      -2.756895            4.205874             -0.534556
| 38>   H                      -3.832270            5.165989             1.402556
| 39>   H                      -2.191036            5.618454             1.900053
| 40>   H                      -2.957396            6.094008             0.292697
| 41>   C                    : -7.546642            5.310844             -2.485952
| 42>   O                    : -6.537382            4.702897             -1.704250
| 43>   H                    : -6.634103            3.799627             -2.072274
| 44>   H                    : -7.343214            5.297082             -3.570693
| 45>   H                    : -8.497672            4.889586             -2.433377
| 46>   H                    : -7.670592            6.410111             -2.234567
| 47> *
| 48>
| 49> #Run DFT-D3 single point of the particle with dimer basis set
| 50> $new_job
| 51> %base "1-16_DFT_B"
| 52> ! wB97X-D3 def2-TZVP TIGHTSCF CHELPG PMODEL
| 53>
| 54> %scf
| 55> MaxIter 1000
| 56> end
| 57>
| 58> * xyz 0 1
| 59>   C                    : -2.881200            5.269052             1.066537
| 60>   O                    : -2.445104            4.075524             0.341486
| 61>   H                    : -2.756895            4.205874             -0.534556
| 62>   H                    : -3.832270            5.165989             1.402556
| 63>   H                    : -2.191036            5.618454             1.900053
| 64>   H                    : -2.957396            6.094008             0.292697
| 65>   C                      -7.546642            5.310844             -2.485952
| 66>   O                      -6.537382            4.702897             -1.704250
| 67>   H                      -6.634103            3.799627             -2.072274
| 68>   H                      -7.343214            5.297082             -3.570693
| 69>   H                      -8.497672            4.889586             -2.433377
| 70>   H                      -7.670592            6.410111             -2.234567
| 71> *
| 72>
| 73>                          ****END OF INPUT****
 Total Charge           Charge          ....    0
 Multiplicity           Mult            ....    1
 Number of Electrons    NEL             ....   36
Dispersion correction           -0.000763311
FINAL SINGLE POINT ENERGY      -231.454062463671
Dispersion correction           -0.000244874
FINAL SINGLE POINT ENERGY      -115.724521099260

CARTESIAN COORDINATES (ANGSTROEM)
---------------------------------
  C     -2.881200    5.269052    1.066537
  O     -2.445104    4.075524    0.341486
  H     -2.756895    4.205874   -0.534556
  H     -3.832270    5.165989    1.402556
  H     -2.191036    5.618454    1.900053
  H     -2.957396    6.094008    0.292697
  C     -7.546642    5.310844   -2.485952
  O     -6.537382    4.702897   -1.704250
  H     -6.634103    3.799627   -2.072274
  H     -7.343214    5.297082   -3.570693
  H     -8.497672    4.889586   -2.433377
  H     -7.670592    6.410111   -2.234567

 Multiplicity           Mult            ....    1
 Number of Electrons    NEL             ....   18
 Basis Dimension        Dim             ....  172

ORBITAL ENERGIES
----------------

  NO   OCC          E(Eh)            E(eV)
   0   2.0000     -19.240353      -523.5566
   1   2.0000     -10.312982      -280.6305
   2   2.0000      -1.142855       -31.0987
   3   2.0000      -0.793529       -21.5930
   4   2.0000      -0.613778       -16.7017
   5   2.0000      -0.539366       -14.6769
   6   2.0000      -0.523804       -14.2534
   7   2.0000      -0.445891       -12.1333
   8   2.0000      -0.376506       -10.2452
   9   0.0000       0.095199         2.5905
  10   0.0000       0.114188         3.1072
  11   0.0000       0.150860         4.1051
  12   0.0000       0.177162         4.8208
  13   0.0000       0.194781         5.3002

MULLIKEN ATOMIC CHARGES
-----------------------
   0 C :   -0.000129
   1 O :    0.000112
   2 H :   -0.000588
   3 H :   -0.000483
   4 H :   -0.000040
   5 H :   -0.000115
   6 C :   -0.199856
   7 O :   -0.449421
   8 H :    0.316707
   9 H :    0.102627
  10 H :    0.114654
  11 H :    0.116530
Sum of atomic charges:   -0.0000000

LOEWDIN ATOMIC CHARGES
----------------------
   0 C :   -0.000336
   1 O :   -0.000015
   2 H :   -0.000355
   3 H :   -0.000175
   4 H :   -0.000008
   5 H :   -0.000075
   6 C :   -0.404923
   7 O :   -0.077170
   8 H :    0.189454
   9 H :    0.095441
  10 H :    0.081756
  11 H :    0.116406

  Mayer bond orders larger than 0.1
B(  6-C ,  7-O ) :   1.0034 B(  6-C ,  9-H ) :   0.9758 B(  6-C , 10-H ) :   0.9699
B(  6-C , 11-H ) :   0.9749 B(  7-O ,  8-H ) :   0.8997

Dispersion correction           -0.000227655
FINAL SINGLE POINT ENERGY      -115.728072273820

DIPOLE MOMENT
-------------
                                X             Y             Z
Electronic contribution:      1.39205      -0.76673       1.24436
Nuclear contribution   :     -1.85006       0.44043      -1.75984
                        -----------------------------------------
Total Dipole Moment    :     -0.45800      -0.32630      -0.51549
                        -----------------------------------------
Magnitude (a.u.)       :      0.76287
Magnitude (Debye)      :      1.93906

Rotational constants in cm-1:     4.324356     0.836076     0.793760
Rotational constants in MHz : 129640.917912 25064.925922 23796.326814

                             ****ORCA TERMINATED NORMALLY****
TOTAL RUN TIME: 0 days 0 hours 6 minutes 15 seconds 523 msec
