                         Program Version 4.1.2  - RELEASE  -
|  1> #Run DFT-D3 single point of the dimer
|  2> ! wB97X-D3 def2-TZVP TIGHTSCF CHELPG PMODEL PAL8
|  3>
|  4> %base "18-74_DFT_AB"
|  5>
|  6> %scf
|  7> MaxIter 1000
|  8> end
|  9>
| 10> * xyz 0 1
| 11>   C                      1.357016             -4.144993            -10.981236
| 12>   O                      0.027472             -4.230226            -11.449429
| 13>   H                      -0.609732            -4.116617            -10.744449
| 14>   H                      1.503885             -3.179850            -10.444601
| 15>   H                      1.556631             -4.875398            -10.229939
| 16>   H                      2.132881             -4.103547            -11.830028
| 17>   C                      4.032736             -6.967960            -6.716628
| 18>   O                      3.995714             -7.928267            -7.704090
| 19>   H                      4.878147             -8.046026            -8.041079
| 20>   H                      4.645797             -6.216006            -7.105603
| 21>   H                      3.024151             -6.574050            -6.466986
| 22>   H                      4.565890             -7.324431            -5.808960
| 23> *
| 24>
| 25> #Run DFT-D3 single point of the molecule with dimer basis set
| 26> $new_job
| 27> %base "18-74_DFT_A"
| 28> ! wB97X-D3 def2-TZVP TIGHTSCF CHELPG PMODEL
| 29>
| 30> %scf
| 31> MaxIter 1000
| 32> end
| 33>
| 34> * xyz 0 1
| 35>   C                      1.357016             -4.144993            -10.981236
| 36>   O                      0.027472             -4.230226            -11.449429
| 37>   H                      -0.609732            -4.116617            -10.744449
| 38>   H                      1.503885             -3.179850            -10.444601
| 39>   H                      1.556631             -4.875398            -10.229939
| 40>   H                      2.132881             -4.103547            -11.830028
| 41>   C                    : 4.032736             -6.967960            -6.716628
| 42>   O                    : 3.995714             -7.928267            -7.704090
| 43>   H                    : 4.878147             -8.046026            -8.041079
| 44>   H                    : 4.645797             -6.216006            -7.105603
| 45>   H                    : 3.024151             -6.574050            -6.466986
| 46>   H                    : 4.565890             -7.324431            -5.808960
| 47> *
| 48>
| 49> #Run DFT-D3 single point of the particle with dimer basis set
| 50> $new_job
| 51> %base "18-74_DFT_B"
| 52> ! wB97X-D3 def2-TZVP TIGHTSCF CHELPG PMODEL
| 53>
| 54> %scf
| 55> MaxIter 1000
| 56> end
| 57>
| 58> * xyz 0 1
| 59>   C                    : 1.357016             -4.144993            -10.981236
| 60>   O                    : 0.027472             -4.230226            -11.449429
| 61>   H                    : -0.609732            -4.116617            -10.744449
| 62>   H                    : 1.503885             -3.179850            -10.444601
| 63>   H                    : 1.556631             -4.875398            -10.229939
| 64>   H                    : 2.132881             -4.103547            -11.830028
| 65>   C                      4.032736             -6.967960            -6.716628
| 66>   O                      3.995714             -7.928267            -7.704090
| 67>   H                      4.878147             -8.046026            -8.041079
| 68>   H                      4.645797             -6.216006            -7.105603
| 69>   H                      3.024151             -6.574050            -6.466986
| 70>   H                      4.565890             -7.324431            -5.808960
| 71> *
| 72>
| 73>                          ****END OF INPUT****
 Total Charge           Charge          ....    0
 Multiplicity           Mult            ....    1
 Number of Electrons    NEL             ....   36
Dispersion correction           -0.000601431
FINAL SINGLE POINT ENERGY      -231.461279493828
Dispersion correction           -0.000247279
FINAL SINGLE POINT ENERGY      -115.730842679582

CARTESIAN COORDINATES (ANGSTROEM)
---------------------------------
  C      1.357016   -4.144993  -10.981236
  O      0.027472   -4.230226  -11.449429
  H     -0.609732   -4.116617  -10.744449
  H      1.503885   -3.179850  -10.444601
  H      1.556631   -4.875398  -10.229939
  H      2.132881   -4.103547  -11.830028
  C      4.032736   -6.967960   -6.716628
  O      3.995714   -7.928267   -7.704090
  H      4.878147   -8.046026   -8.041079
  H      4.645797   -6.216006   -7.105603
  H      3.024151   -6.574050   -6.466986
  H      4.565890   -7.324431   -5.808960

 Multiplicity           Mult            ....    1
 Number of Electrons    NEL             ....   18
 Basis Dimension        Dim             ....  172

ORBITAL ENERGIES
----------------

  NO   OCC          E(Eh)            E(eV)
   0   2.0000     -19.225896      -523.1632
   1   2.0000     -10.307776      -280.4888
   2   2.0000      -1.148995       -31.2657
   3   2.0000      -0.794047       -21.6071
   4   2.0000      -0.621034       -16.8992
   5   2.0000      -0.544626       -14.8200
   6   2.0000      -0.535922       -14.5832
   7   2.0000      -0.431302       -11.7363
   8   2.0000      -0.367274        -9.9940
   9   0.0000       0.088775         2.4157
  10   0.0000       0.113734         3.0949
  11   0.0000       0.157207         4.2778
  12   0.0000       0.166309         4.5255
  13   0.0000       0.191875         5.2212

MULLIKEN ATOMIC CHARGES
-----------------------
   0 C :    0.000123
   1 O :   -0.000002
   2 H :   -0.000001
   3 H :   -0.000001
   4 H :   -0.000331
   5 H :   -0.000002
   6 C :   -0.151358
   7 O :   -0.465937
   8 H :    0.314140
   9 H :    0.101635
  10 H :    0.114275
  11 H :    0.087458
Sum of atomic charges:    0.0000000

LOEWDIN ATOMIC CHARGES
----------------------
   0 C :   -0.000019
   1 O :   -0.000001
   2 H :   -0.000000
   3 H :   -0.000001
   4 H :   -0.000099
   5 H :   -0.000000
   6 C :   -0.407746
   7 O :   -0.050422
   8 H :    0.167154
   9 H :    0.085101
  10 H :    0.111755
  11 H :    0.094277

  Mayer bond orders larger than 0.1
B(  6-C ,  7-O ) :   0.9960 B(  6-C ,  9-H ) :   0.9958 B(  6-C , 10-H ) :   0.9703
B(  6-C , 11-H ) :   0.9732 B(  7-O ,  8-H ) :   0.8990

Dispersion correction           -0.000207513
FINAL SINGLE POINT ENERGY      -115.730270864167

DIPOLE MOMENT
-------------
                                X             Y             Z
Electronic contribution:     -0.28532      -1.24322      -1.25155
Nuclear contribution   :      0.87485       1.55568       1.38715
                        -----------------------------------------
Total Dipole Moment    :      0.58954       0.31245       0.13559
                        -----------------------------------------
Magnitude (a.u.)       :      0.68086
Magnitude (Debye)      :      1.73060

Rotational constants in cm-1:     4.319677     0.877746     0.837202
Rotational constants in MHz : 129500.653839 26314.149298 25098.692068

                             ****ORCA TERMINATED NORMALLY****
TOTAL RUN TIME: 0 days 0 hours 0 minutes 54 seconds 664 msec
