                         Program Version 4.1.2  - RELEASE  -
|  1> #Run DFT-D3 single point of the dimer
|  2> ! wB97X-D3 def2-TZVP TIGHTSCF CHELPG PMODEL PAL8
|  3>
|  4> %base "14-142_DFT_AB"
|  5>
|  6> %scf
|  7> MaxIter 1000
|  8> end
|  9>
| 10> * xyz 0 1
| 11>   C                      -6.355175            4.803348             -0.633554
| 12>   O                      -6.165207            4.170899             0.606047
| 13>   H                      -6.825564            3.483296             0.638373
| 14>   H                      -7.380405            5.187809             -0.791474
| 15>   H                      -5.628031            5.602576             -0.976239
| 16>   H                      -6.191720            4.108695             -1.435763
| 17>   C                      -6.014238            7.072502             2.361991
| 18>   O                      -6.223887            8.258419             1.706351
| 19>   H                      -6.623164            8.010038             0.897433
| 20>   H                      -5.496970            7.270082             3.295492
| 21>   H                      -6.945831            6.523959             2.467177
| 22>   H                      -5.412304            6.397185             1.786378
| 23> *
| 24>
| 25> #Run DFT-D3 single point of the molecule with dimer basis set
| 26> $new_job
| 27> %base "14-142_DFT_A"
| 28> ! wB97X-D3 def2-TZVP TIGHTSCF CHELPG PMODEL
| 29>
| 30> %scf
| 31> MaxIter 1000
| 32> end
| 33>
| 34> * xyz 0 1
| 35>   C                      -6.355175            4.803348             -0.633554
| 36>   O                      -6.165207            4.170899             0.606047
| 37>   H                      -6.825564            3.483296             0.638373
| 38>   H                      -7.380405            5.187809             -0.791474
| 39>   H                      -5.628031            5.602576             -0.976239
| 40>   H                      -6.191720            4.108695             -1.435763
| 41>   C                    : -6.014238            7.072502             2.361991
| 42>   O                    : -6.223887            8.258419             1.706351
| 43>   H                    : -6.623164            8.010038             0.897433
| 44>   H                    : -5.496970            7.270082             3.295492
| 45>   H                    : -6.945831            6.523959             2.467177
| 46>   H                    : -5.412304            6.397185             1.786378
| 47> *
| 48>
| 49> #Run DFT-D3 single point of the particle with dimer basis set
| 50> $new_job
| 51> %base "14-142_DFT_B"
| 52> ! wB97X-D3 def2-TZVP TIGHTSCF CHELPG PMODEL
| 53>
| 54> %scf
| 55> MaxIter 1000
| 56> end
| 57>
| 58> * xyz 0 1
| 59>   C                    : -6.355175            4.803348             -0.633554
| 60>   O                    : -6.165207            4.170899             0.606047
| 61>   H                    : -6.825564            3.483296             0.638373
| 62>   H                    : -7.380405            5.187809             -0.791474
| 63>   H                    : -5.628031            5.602576             -0.976239
| 64>   H                    : -6.191720            4.108695             -1.435763
| 65>   C                      -6.014238            7.072502             2.361991
| 66>   O                      -6.223887            8.258419             1.706351
| 67>   H                      -6.623164            8.010038             0.897433
| 68>   H                      -5.496970            7.270082             3.295492
| 69>   H                      -6.945831            6.523959             2.467177
| 70>   H                      -5.412304            6.397185             1.786378
| 71> *
| 72>
| 73>                          ****END OF INPUT****
 Total Charge           Charge          ....    0
 Multiplicity           Mult            ....    1
 Number of Electrons    NEL             ....   36
Dispersion correction           -0.001998305
FINAL SINGLE POINT ENERGY      -231.463540498078
Dispersion correction           -0.000243351
FINAL SINGLE POINT ENERGY      -115.728949543302

CARTESIAN COORDINATES (ANGSTROEM)
---------------------------------
  C     -6.355175    4.803348   -0.633554
  O     -6.165207    4.170899    0.606047
  H     -6.825564    3.483296    0.638373
  H     -7.380405    5.187809   -0.791474
  H     -5.628031    5.602576   -0.976239
  H     -6.191720    4.108695   -1.435763
  C     -6.014238    7.072502    2.361991
  O     -6.223887    8.258419    1.706351
  H     -6.623164    8.010038    0.897433
  H     -5.496970    7.270082    3.295492
  H     -6.945831    6.523959    2.467177
  H     -5.412304    6.397185    1.786378

 Multiplicity           Mult            ....    1
 Number of Electrons    NEL             ....   18
 Basis Dimension        Dim             ....  172

ORBITAL ENERGIES
----------------

  NO   OCC          E(Eh)            E(eV)
   0   2.0000     -19.227344      -523.2026
   1   2.0000     -10.305182      -280.4182
   2   2.0000      -1.157485       -31.4968
   3   2.0000      -0.796508       -21.6741
   4   2.0000      -0.626930       -17.0596
   5   2.0000      -0.546176       -14.8622
   6   2.0000      -0.532265       -14.4837
   7   2.0000      -0.441784       -12.0216
   8   2.0000      -0.368929       -10.0391
   9   0.0000       0.070394         1.9155
  10   0.0000       0.126834         3.4513
  11   0.0000       0.149847         4.0775
  12   0.0000       0.168963         4.5977
  13   0.0000       0.189463         5.1555

MULLIKEN ATOMIC CHARGES
-----------------------
   0 C :    0.000347
   1 O :   -0.001193
   2 H :   -0.000246
   3 H :   -0.000232
   4 H :    0.000283
   5 H :    0.000230
   6 C :   -0.159421
   7 O :   -0.456374
   8 H :    0.308983
   9 H :    0.119362
  10 H :    0.092871
  11 H :    0.095389
Sum of atomic charges:   -0.0000000

LOEWDIN ATOMIC CHARGES
----------------------
   0 C :   -0.005142
   1 O :   -0.004455
   2 H :   -0.000277
   3 H :   -0.000171
   4 H :   -0.000678
   5 H :   -0.000034
   6 C :   -0.409223
   7 O :   -0.030953
   8 H :    0.158164
   9 H :    0.108990
  10 H :    0.093566
  11 H :    0.090212

  Mayer bond orders larger than 0.1
B(  6-C ,  7-O ) :   1.0010 B(  6-C ,  9-H ) :   0.9719 B(  6-C , 10-H ) :   0.9835
B(  6-C , 11-H ) :   0.9798 B(  7-O ,  8-H ) :   0.9080

Dispersion correction           -0.000195653
FINAL SINGLE POINT ENERGY      -115.732656580614

DIPOLE MOMENT
-------------
                                X             Y             Z
Electronic contribution:     -0.21073       1.69043      -0.68036
Nuclear contribution   :      0.04595      -2.28610       0.40280
                        -----------------------------------------
Total Dipole Moment    :     -0.16478      -0.59567      -0.27757
                        -----------------------------------------
Magnitude (a.u.)       :      0.67751
Magnitude (Debye)      :      1.72209

Rotational constants in cm-1:     4.363513     0.892129     0.846467
Rotational constants in MHz : 130814.822118 26745.345790 25376.433204

                             ****ORCA TERMINATED NORMALLY****
TOTAL RUN TIME: 0 days 0 hours 1 minutes 9 seconds 7 msec
