                         Program Version 4.1.2  - RELEASE  -
|  1> #Run DFT-D3 single point of the dimer
|  2> ! wB97X-D3 def2-TZVP TIGHTSCF CHELPG PMODEL PAL8
|  3>
|  4> %base "14-88_DFT_AB"
|  5>
|  6> %scf
|  7> MaxIter 1000
|  8> end
|  9>
| 10> * xyz 0 1
| 11>   C                      -4.858137            8.794378             -2.162719
| 12>   O                      -5.057893            9.023676             -0.762485
| 13>   H                      -4.277961            8.800261             -0.211867
| 14>   H                      -5.459045            7.976104             -2.597022
| 15>   H                      -5.076426            9.725379             -2.688449
| 16>   H                      -3.806476            8.543483             -2.442663
| 17>   C                      -7.738484            10.361660            -5.552580
| 18>   O                      -6.863904            9.779337             -4.522184
| 19>   H                      -7.368457            9.147472             -3.992070
| 20>   H                      -7.403363            11.428585            -5.831735
| 21>   H                      -7.648731            9.861242             -6.512678
| 22>   H                      -8.867734            10.356978            -5.293214
| 23> *
| 24>
| 25> #Run DFT-D3 single point of the molecule with dimer basis set
| 26> $new_job
| 27> %base "14-88_DFT_A"
| 28> ! wB97X-D3 def2-TZVP TIGHTSCF CHELPG PMODEL
| 29>
| 30> %scf
| 31> MaxIter 1000
| 32> end
| 33>
| 34> * xyz 0 1
| 35>   C                      -4.858137            8.794378             -2.162719
| 36>   O                      -5.057893            9.023676             -0.762485
| 37>   H                      -4.277961            8.800261             -0.211867
| 38>   H                      -5.459045            7.976104             -2.597022
| 39>   H                      -5.076426            9.725379             -2.688449
| 40>   H                      -3.806476            8.543483             -2.442663
| 41>   C                    : -7.738484            10.361660            -5.552580
| 42>   O                    : -6.863904            9.779337             -4.522184
| 43>   H                    : -7.368457            9.147472             -3.992070
| 44>   H                    : -7.403363            11.428585            -5.831735
| 45>   H                    : -7.648731            9.861242             -6.512678
| 46>   H                    : -8.867734            10.356978            -5.293214
| 47> *
| 48>
| 49> #Run DFT-D3 single point of the particle with dimer basis set
| 50> $new_job
| 51> %base "14-88_DFT_B"
| 52> ! wB97X-D3 def2-TZVP TIGHTSCF CHELPG PMODEL
| 53>
| 54> %scf
| 55> MaxIter 1000
| 56> end
| 57>
| 58> * xyz 0 1
| 59>   C                    : -4.858137            8.794378             -2.162719
| 60>   O                    : -5.057893            9.023676             -0.762485
| 61>   H                    : -4.277961            8.800261             -0.211867
| 62>   H                    : -5.459045            7.976104             -2.597022
| 63>   H                    : -5.076426            9.725379             -2.688449
| 64>   H                    : -3.806476            8.543483             -2.442663
| 65>   C                      -7.738484            10.361660            -5.552580
| 66>   O                      -6.863904            9.779337             -4.522184
| 67>   H                      -7.368457            9.147472             -3.992070
| 68>   H                      -7.403363            11.428585            -5.831735
| 69>   H                      -7.648731            9.861242             -6.512678
| 70>   H                      -8.867734            10.356978            -5.293214
| 71> *
| 72>
| 73>                          ****END OF INPUT****
 Total Charge           Charge          ....    0
 Multiplicity           Mult            ....    1
 Number of Electrons    NEL             ....   36
Dispersion correction           -0.001561249
FINAL SINGLE POINT ENERGY      -231.461703914475
Dispersion correction           -0.000282954
FINAL SINGLE POINT ENERGY      -115.732763460154

CARTESIAN COORDINATES (ANGSTROEM)
---------------------------------
  C     -4.858137    8.794378   -2.162719
  O     -5.057893    9.023676   -0.762485
  H     -4.277961    8.800261   -0.211867
  H     -5.459045    7.976104   -2.597022
  H     -5.076426    9.725379   -2.688449
  H     -3.806476    8.543483   -2.442663
  C     -7.738484   10.361660   -5.552580
  O     -6.863904    9.779337   -4.522184
  H     -7.368457    9.147472   -3.992070
  H     -7.403363   11.428585   -5.831735
  H     -7.648731    9.861242   -6.512678
  H     -8.867734   10.356978   -5.293214

 Multiplicity           Mult            ....    1
 Number of Electrons    NEL             ....   18
 Basis Dimension        Dim             ....  172

ORBITAL ENERGIES
----------------

  NO   OCC          E(Eh)            E(eV)
   0   2.0000     -19.235613      -523.4276
   1   2.0000     -10.331696      -281.1397
   2   2.0000      -1.119973       -30.4760
   3   2.0000      -0.791908       -21.5489
   4   2.0000      -0.600961       -16.3530
   5   2.0000      -0.528161       -14.3720
   6   2.0000      -0.516121       -14.0444
   7   2.0000      -0.436606       -11.8807
   8   2.0000      -0.375502       -10.2179
   9   0.0000       0.091202         2.4817
  10   0.0000       0.120303         3.2736
  11   0.0000       0.141899         3.8613
  12   0.0000       0.182152         4.9566
  13   0.0000       0.189305         5.1512

MULLIKEN ATOMIC CHARGES
-----------------------
   0 C :    0.001573
   1 O :    0.000194
   2 H :    0.000003
   3 H :   -0.002752
   4 H :   -0.007474
   5 H :   -0.000593
   6 C :   -0.195468
   7 O :   -0.466808
   8 H :    0.319071
   9 H :    0.121296
  10 H :    0.117871
  11 H :    0.113086
Sum of atomic charges:   -0.0000000

LOEWDIN ATOMIC CHARGES
----------------------
   0 C :   -0.009531
   1 O :   -0.000039
   2 H :   -0.000013
   3 H :   -0.002007
   4 H :   -0.009563
   5 H :   -0.000089
   6 C :   -0.365527
   7 O :   -0.103612
   8 H :    0.171564
   9 H :    0.116620
  10 H :    0.093532
  11 H :    0.108665

  Mayer bond orders larger than 0.1
B(  6-C ,  7-O ) :   1.0019 B(  6-C ,  9-H ) :   0.9740 B(  6-C , 10-H ) :   0.9678
B(  6-C , 11-H ) :   0.9708 B(  7-O ,  8-H ) :   0.8952

Dispersion correction           -0.000309599
FINAL SINGLE POINT ENERGY      -115.727573784650

DIPOLE MOMENT
-------------
                                X             Y             Z
Electronic contribution:      1.21501      -0.71903       1.32719
Nuclear contribution   :     -1.90634       0.55212      -1.44719
                        -----------------------------------------
Total Dipole Moment    :     -0.69133      -0.16691      -0.12000
                        -----------------------------------------
Magnitude (a.u.)       :      0.72125
Magnitude (Debye)      :      1.83327

Rotational constants in cm-1:     4.164977     0.765727     0.729146
Rotational constants in MHz : 124862.866007 22955.903968 21859.234306

                             ****ORCA TERMINATED NORMALLY****
TOTAL RUN TIME: 0 days 0 hours 1 minutes 10 seconds 595 msec
