                         Program Version 4.1.2  - RELEASE  -
|  1> #Run DFT-D3 single point of the dimer
|  2> ! wB97X-D3 def2-TZVP TIGHTSCF CHELPG PMODEL PAL8
|  3>
|  4> %base "3-88_DFT_AB"
|  5>
|  6> %scf
|  7> MaxIter 1000
|  8> end
|  9>
| 10> * xyz 0 1
| 11>   C                      -1.179622            -0.680025            6.462159
| 12>   O                      -1.994517            0.038928             7.405688
| 13>   H                      -2.109912            0.907878             7.079844
| 14>   H                      -0.109920            -0.503745            6.727623
| 15>   H                      -1.354234            -1.756892            6.522703
| 16>   H                      -1.366128            -0.313220            5.402350
| 17>   C                      -5.992115            -1.387739            5.107837
| 18>   O                      -5.329608            -0.290068            4.531162
| 19>   H                      -5.970827            0.280514             4.158896
| 20>   H                      -5.775991            -1.466988            6.147910
| 21>   H                      -7.074654            -1.268417            5.087857
| 22>   H                      -5.873471            -2.400819            4.623645
| 23> *
| 24>
| 25> #Run DFT-D3 single point of the molecule with dimer basis set
| 26> $new_job
| 27> %base "3-88_DFT_A"
| 28> ! wB97X-D3 def2-TZVP TIGHTSCF CHELPG PMODEL
| 29>
| 30> %scf
| 31> MaxIter 1000
| 32> end
| 33>
| 34> * xyz 0 1
| 35>   C                      -1.179622            -0.680025            6.462159
| 36>   O                      -1.994517            0.038928             7.405688
| 37>   H                      -2.109912            0.907878             7.079844
| 38>   H                      -0.109920            -0.503745            6.727623
| 39>   H                      -1.354234            -1.756892            6.522703
| 40>   H                      -1.366128            -0.313220            5.402350
| 41>   C                    : -5.992115            -1.387739            5.107837
| 42>   O                    : -5.329608            -0.290068            4.531162
| 43>   H                    : -5.970827            0.280514             4.158896
| 44>   H                    : -5.775991            -1.466988            6.147910
| 45>   H                    : -7.074654            -1.268417            5.087857
| 46>   H                    : -5.873471            -2.400819            4.623645
| 47> *
| 48>
| 49> #Run DFT-D3 single point of the particle with dimer basis set
| 50> $new_job
| 51> %base "3-88_DFT_B"
| 52> ! wB97X-D3 def2-TZVP TIGHTSCF CHELPG PMODEL
| 53>
| 54> %scf
| 55> MaxIter 1000
| 56> end
| 57>
| 58> * xyz 0 1
| 59>   C                    : -1.179622            -0.680025            6.462159
| 60>   O                    : -1.994517            0.038928             7.405688
| 61>   H                    : -2.109912            0.907878             7.079844
| 62>   H                    : -0.109920            -0.503745            6.727623
| 63>   H                    : -1.354234            -1.756892            6.522703
| 64>   H                    : -1.366128            -0.313220            5.402350
| 65>   C                      -5.992115            -1.387739            5.107837
| 66>   O                      -5.329608            -0.290068            4.531162
| 67>   H                      -5.970827            0.280514             4.158896
| 68>   H                      -5.775991            -1.466988            6.147910
| 69>   H                      -7.074654            -1.268417            5.087857
| 70>   H                      -5.873471            -2.400819            4.623645
| 71> *
| 72>
| 73>                          ****END OF INPUT****
 Total Charge           Charge          ....    0
 Multiplicity           Mult            ....    1
 Number of Electrons    NEL             ....   36
Dispersion correction           -0.000919167
FINAL SINGLE POINT ENERGY      -231.465884233011
Dispersion correction           -0.000253585
FINAL SINGLE POINT ENERGY      -115.733927687163

CARTESIAN COORDINATES (ANGSTROEM)
---------------------------------
  C     -1.179622   -0.680025    6.462159
  O     -1.994517    0.038928    7.405688
  H     -2.109912    0.907878    7.079844
  H     -0.109920   -0.503745    6.727623
  H     -1.354234   -1.756892    6.522703
  H     -1.366128   -0.313220    5.402350
  C     -5.992115   -1.387739    5.107837
  O     -5.329608   -0.290068    4.531162
  H     -5.970827    0.280514    4.158896
  H     -5.775991   -1.466988    6.147910
  H     -7.074654   -1.268417    5.087857
  H     -5.873471   -2.400819    4.623645

 Multiplicity           Mult            ....    1
 Number of Electrons    NEL             ....   18
 Basis Dimension        Dim             ....  172

ORBITAL ENERGIES
----------------

  NO   OCC          E(Eh)            E(eV)
   0   2.0000     -19.231416      -523.3134
   1   2.0000     -10.313119      -280.6342
   2   2.0000      -1.145205       -31.1626
   3   2.0000      -0.799997       -21.7690
   4   2.0000      -0.621853       -16.9215
   5   2.0000      -0.541565       -14.7367
   6   2.0000      -0.527205       -14.3460
   7   2.0000      -0.430072       -11.7029
   8   2.0000      -0.377920       -10.2837
   9   0.0000       0.093325         2.5395
  10   0.0000       0.118103         3.2137
  11   0.0000       0.150413         4.0929
  12   0.0000       0.173129         4.7111
  13   0.0000       0.193575         5.2674

MULLIKEN ATOMIC CHARGES
-----------------------
   0 C :    0.000125
   1 O :   -0.000068
   2 H :   -0.000242
   3 H :   -0.000032
   4 H :    0.000011
   5 H :   -0.000693
   6 C :   -0.177640
   7 O :   -0.465610
   8 H :    0.316181
   9 H :    0.117813
  10 H :    0.106745
  11 H :    0.103409
Sum of atomic charges:   -0.0000000

LOEWDIN ATOMIC CHARGES
----------------------
   0 C :   -0.000259
   1 O :   -0.000036
   2 H :   -0.000147
   3 H :   -0.000008
   4 H :   -0.000009
   5 H :   -0.000269
   6 C :   -0.396108
   7 O :   -0.055955
   8 H :    0.156363
   9 H :    0.095363
  10 H :    0.096286
  11 H :    0.104780

  Mayer bond orders larger than 0.1
B(  6-C ,  7-O ) :   1.0116 B(  6-C ,  9-H ) :   0.9764 B(  6-C , 10-H ) :   0.9869
B(  6-C , 11-H ) :   0.9674 B(  7-O ,  8-H ) :   0.9034

Dispersion correction           -0.000257012
FINAL SINGLE POINT ENERGY      -115.731090039116

DIPOLE MOMENT
-------------
                                X             Y             Z
Electronic contribution:      1.10947       1.44818      -0.74614
Nuclear contribution   :     -1.83195      -1.47880       0.73774
                        -----------------------------------------
Total Dipole Moment    :     -0.72248      -0.03062      -0.00840
                        -----------------------------------------
Magnitude (a.u.)       :      0.72318
Magnitude (Debye)      :      1.83817

Rotational constants in cm-1:     4.506603     0.823356     0.802633
Rotational constants in MHz : 135104.549987 24683.598736 24062.326609

                             ****ORCA TERMINATED NORMALLY****
TOTAL RUN TIME: 0 days 0 hours 6 minutes 15 seconds 438 msec
