                         Program Version 4.1.2  - RELEASE  -
|  1> #Run DFT-D3 single point of the dimer
|  2> ! wB97X-D3 def2-TZVP TIGHTSCF CHELPG PMODEL PAL8
|  3>
|  4> %base "1-133_DFT_AB"
|  5>
|  6> %scf
|  7> MaxIter 1000
|  8> end
|  9>
| 10> * xyz 0 1
| 11>   C                      -5.907909            -7.270383            -9.411896
| 12>   O                      -6.939199            -7.776413            -10.164808
| 13>   H                      -6.849810            -8.745502            -10.180810
| 14>   H                      -5.949273            -7.445977            -8.375448
| 15>   H                      -4.982129            -7.743169            -9.713157
| 16>   H                      -5.813734            -6.172566            -9.550983
| 17>   C                      -9.917695            -6.771640            -11.480742
| 18>   O                      -10.379273           -7.468041            -10.321750
| 19>   H                      -10.399778           -6.797954            -9.638099
| 20>   H                      -9.683152            -7.503796            -12.254542
| 21>   H                      -10.721337           -6.171460            -11.894603
| 22>   H                      -9.119196            -6.020222            -11.364647
| 23> *
| 24>
| 25> #Run DFT-D3 single point of the molecule with dimer basis set
| 26> $new_job
| 27> %base "1-133_DFT_A"
| 28> ! wB97X-D3 def2-TZVP TIGHTSCF CHELPG PMODEL
| 29>
| 30> %scf
| 31> MaxIter 1000
| 32> end
| 33>
| 34> * xyz 0 1
| 35>   C                      -5.907909            -7.270383            -9.411896
| 36>   O                      -6.939199            -7.776413            -10.164808
| 37>   H                      -6.849810            -8.745502            -10.180810
| 38>   H                      -5.949273            -7.445977            -8.375448
| 39>   H                      -4.982129            -7.743169            -9.713157
| 40>   H                      -5.813734            -6.172566            -9.550983
| 41>   C                    : -9.917695            -6.771640            -11.480742
| 42>   O                    : -10.379273           -7.468041            -10.321750
| 43>   H                    : -10.399778           -6.797954            -9.638099
| 44>   H                    : -9.683152            -7.503796            -12.254542
| 45>   H                    : -10.721337           -6.171460            -11.894603
| 46>   H                    : -9.119196            -6.020222            -11.364647
| 47> *
| 48>
| 49> #Run DFT-D3 single point of the particle with dimer basis set
| 50> $new_job
| 51> %base "1-133_DFT_B"
| 52> ! wB97X-D3 def2-TZVP TIGHTSCF CHELPG PMODEL
| 53>
| 54> %scf
| 55> MaxIter 1000
| 56> end
| 57>
| 58> * xyz 0 1
| 59>   C                    : -5.907909            -7.270383            -9.411896
| 60>   O                    : -6.939199            -7.776413            -10.164808
| 61>   H                    : -6.849810            -8.745502            -10.180810
| 62>   H                    : -5.949273            -7.445977            -8.375448
| 63>   H                    : -4.982129            -7.743169            -9.713157
| 64>   H                    : -5.813734            -6.172566            -9.550983
| 65>   C                      -9.917695            -6.771640            -11.480742
| 66>   O                      -10.379273           -7.468041            -10.321750
| 67>   H                      -10.399778           -6.797954            -9.638099
| 68>   H                      -9.683152            -7.503796            -12.254542
| 69>   H                      -10.721337           -6.171460            -11.894603
| 70>   H                      -9.119196            -6.020222            -11.364647
| 71> *
| 72>
| 73>                          ****END OF INPUT****
 Total Charge           Charge          ....    0
 Multiplicity           Mult            ....    1
 Number of Electrons    NEL             ....   36
Dispersion correction           -0.001496468
FINAL SINGLE POINT ENERGY      -231.466869272718
Dispersion correction           -0.000219184
FINAL SINGLE POINT ENERGY      -115.732851246587

CARTESIAN COORDINATES (ANGSTROEM)
---------------------------------
  C     -5.907909   -7.270383   -9.411896
  O     -6.939199   -7.776413  -10.164808
  H     -6.849810   -8.745502  -10.180810
  H     -5.949273   -7.445977   -8.375448
  H     -4.982129   -7.743169   -9.713157
  H     -5.813734   -6.172566   -9.550983
  C     -9.917695   -6.771640  -11.480742
  O    -10.379273   -7.468041  -10.321750
  H    -10.399778   -6.797954   -9.638099
  H     -9.683152   -7.503796  -12.254542
  H    -10.721337   -6.171460  -11.894603
  H     -9.119196   -6.020222  -11.364647

 Multiplicity           Mult            ....    1
 Number of Electrons    NEL             ....   18
 Basis Dimension        Dim             ....  172

ORBITAL ENERGIES
----------------

  NO   OCC          E(Eh)            E(eV)
   0   2.0000     -19.233998      -523.3837
   1   2.0000     -10.313548      -280.6459
   2   2.0000      -1.136098       -30.9148
   3   2.0000      -0.796705       -21.6794
   4   2.0000      -0.613752       -16.7010
   5   2.0000      -0.530549       -14.4370
   6   2.0000      -0.524973       -14.2852
   7   2.0000      -0.447848       -12.1866
   8   2.0000      -0.372688       -10.1413
   9   0.0000       0.083935         2.2840
  10   0.0000       0.120452         3.2777
  11   0.0000       0.150447         4.0939
  12   0.0000       0.165038         4.4909
  13   0.0000       0.191707         5.2166

MULLIKEN ATOMIC CHARGES
-----------------------
   0 C :    0.000112
   1 O :    0.000211
   2 H :   -0.000439
   3 H :    0.000024
   4 H :   -0.000021
   5 H :   -0.000117
   6 C :   -0.187553
   7 O :   -0.467488
   8 H :    0.311971
   9 H :    0.124205
  10 H :    0.110237
  11 H :    0.108857
Sum of atomic charges:    0.0000000

LOEWDIN ATOMIC CHARGES
----------------------
   0 C :   -0.000441
   1 O :   -0.002143
   2 H :   -0.000478
   3 H :   -0.000009
   4 H :   -0.000009
   5 H :   -0.000076
   6 C :   -0.384143
   7 O :   -0.081040
   8 H :    0.167947
   9 H :    0.109586
  10 H :    0.093805
  11 H :    0.097002

  Mayer bond orders larger than 0.1
B(  6-C ,  7-O ) :   0.9911 B(  6-C ,  9-H ) :   0.9771 B(  6-C , 10-H ) :   0.9753
B(  6-C , 11-H ) :   0.9705 B(  7-O ,  8-H ) :   0.9037

Dispersion correction           -0.000247214
FINAL SINGLE POINT ENERGY      -115.733472477346

DIPOLE MOMENT
-------------
                                X             Y             Z
Electronic contribution:     -0.50198      -1.08342       1.49340
Nuclear contribution   :      0.65436       1.78590      -1.53109
                        -----------------------------------------
Total Dipole Moment    :      0.15238       0.70248      -0.03769
                        -----------------------------------------
Magnitude (a.u.)       :      0.71980
Magnitude (Debye)      :      1.82960

Rotational constants in cm-1:     4.348962     0.821409     0.781318
Rotational constants in MHz : 130378.599861 24625.222169 23423.337476

                             ****ORCA TERMINATED NORMALLY****
TOTAL RUN TIME: 0 days 0 hours 5 minutes 38 seconds 476 msec
