                         Program Version 4.1.2  - RELEASE  -
|  1> #Run DFT-D3 single point of the dimer
|  2> ! wB97X-D3 def2-TZVP TIGHTSCF CHELPG PMODEL PAL8
|  3>
|  4> %base "9-125_DFT_AB"
|  5>
|  6> %scf
|  7> MaxIter 1000
|  8> end
|  9>
| 10> * xyz 0 1
| 11>   C                      -1.356228            -0.340846            0.709262
| 12>   O                      -0.810618            -0.266674            -0.606625
| 13>   H                      -1.477171            -0.764683            -1.013376
| 14>   H                      -0.663269            0.163702             1.446102
| 15>   H                      -2.321533            0.255748             0.727861
| 16>   H                      -1.548935            -1.338380            1.075579
| 17>   C                      3.223272             -2.438549            -3.423664
| 18>   O                      3.022313             -1.536234            -2.328984
| 19>   H                      3.613779             -1.773464            -1.680100
| 20>   H                      4.288692             -2.640440            -3.533088
| 21>   H                      2.703304             -3.430729            -3.213615
| 22>   H                      2.902876             -2.032643            -4.407125
| 23> *
| 24>
| 25> #Run DFT-D3 single point of the molecule with dimer basis set
| 26> $new_job
| 27> %base "9-125_DFT_A"
| 28> ! wB97X-D3 def2-TZVP TIGHTSCF CHELPG PMODEL
| 29>
| 30> %scf
| 31> MaxIter 1000
| 32> end
| 33>
| 34> * xyz 0 1
| 35>   C                      -1.356228            -0.340846            0.709262
| 36>   O                      -0.810618            -0.266674            -0.606625
| 37>   H                      -1.477171            -0.764683            -1.013376
| 38>   H                      -0.663269            0.163702             1.446102
| 39>   H                      -2.321533            0.255748             0.727861
| 40>   H                      -1.548935            -1.338380            1.075579
| 41>   C                    : 3.223272             -2.438549            -3.423664
| 42>   O                    : 3.022313             -1.536234            -2.328984
| 43>   H                    : 3.613779             -1.773464            -1.680100
| 44>   H                    : 4.288692             -2.640440            -3.533088
| 45>   H                    : 2.703304             -3.430729            -3.213615
| 46>   H                    : 2.902876             -2.032643            -4.407125
| 47> *
| 48>
| 49> #Run DFT-D3 single point of the particle with dimer basis set
| 50> $new_job
| 51> %base "9-125_DFT_B"
| 52> ! wB97X-D3 def2-TZVP TIGHTSCF CHELPG PMODEL
| 53>
| 54> %scf
| 55> MaxIter 1000
| 56> end
| 57>
| 58> * xyz 0 1
| 59>   C                    : -1.356228            -0.340846            0.709262
| 60>   O                    : -0.810618            -0.266674            -0.606625
| 61>   H                    : -1.477171            -0.764683            -1.013376
| 62>   H                    : -0.663269            0.163702             1.446102
| 63>   H                    : -2.321533            0.255748             0.727861
| 64>   H                    : -1.548935            -1.338380            1.075579
| 65>   C                      3.223272             -2.438549            -3.423664
| 66>   O                      3.022313             -1.536234            -2.328984
| 67>   H                      3.613779             -1.773464            -1.680100
| 68>   H                      4.288692             -2.640440            -3.533088
| 69>   H                      2.703304             -3.430729            -3.213615
| 70>   H                      2.902876             -2.032643            -4.407125
| 71> *
| 72>
| 73>                          ****END OF INPUT****
 Total Charge           Charge          ....    0
 Multiplicity           Mult            ....    1
 Number of Electrons    NEL             ....   36
Dispersion correction           -0.000633389
FINAL SINGLE POINT ENERGY      -231.458893011790
Dispersion correction           -0.000222809
FINAL SINGLE POINT ENERGY      -115.729060963064

CARTESIAN COORDINATES (ANGSTROEM)
---------------------------------
  C     -1.356228   -0.340846    0.709262
  O     -0.810618   -0.266674   -0.606625
  H     -1.477171   -0.764683   -1.013376
  H     -0.663269    0.163702    1.446102
  H     -2.321533    0.255748    0.727861
  H     -1.548935   -1.338380    1.075579
  C      3.223272   -2.438549   -3.423664
  O      3.022313   -1.536234   -2.328984
  H      3.613779   -1.773464   -1.680100
  H      4.288692   -2.640440   -3.533088
  H      2.703304   -3.430729   -3.213615
  H      2.902876   -2.032643   -4.407125

 Multiplicity           Mult            ....    1
 Number of Electrons    NEL             ....   18
 Basis Dimension        Dim             ....  172

ORBITAL ENERGIES
----------------

  NO   OCC          E(Eh)            E(eV)
   0   2.0000     -19.225885      -523.1629
   1   2.0000     -10.322282      -280.8836
   2   2.0000      -1.142640       -31.0928
   3   2.0000      -0.795992       -21.6601
   4   2.0000      -0.612741       -16.6735
   5   2.0000      -0.538007       -14.6399
   6   2.0000      -0.527246       -14.3471
   7   2.0000      -0.435285       -11.8447
   8   2.0000      -0.375362       -10.2141
   9   0.0000       0.093128         2.5341
  10   0.0000       0.118099         3.2137
  11   0.0000       0.153099         4.1660
  12   0.0000       0.174982         4.7615
  13   0.0000       0.196818         5.3557

MULLIKEN ATOMIC CHARGES
-----------------------
   0 C :   -0.000164
   1 O :   -0.000113
   2 H :   -0.000045
   3 H :    0.000016
   4 H :    0.000001
   5 H :    0.000010
   6 C :   -0.168925
   7 O :   -0.461679
   8 H :    0.303556
   9 H :    0.105427
  10 H :    0.101412
  11 H :    0.120506
Sum of atomic charges:    0.0000000

LOEWDIN ATOMIC CHARGES
----------------------
   0 C :   -0.000042
   1 O :   -0.000149
   2 H :   -0.000044
   3 H :   -0.000000
   4 H :   -0.000001
   5 H :   -0.000000
   6 C :   -0.373795
   7 O :   -0.066220
   8 H :    0.133316
   9 H :    0.094077
  10 H :    0.103017
  11 H :    0.109842

  Mayer bond orders larger than 0.1
B(  6-C ,  7-O ) :   0.9956 B(  6-C ,  9-H ) :   0.9823 B(  6-C , 10-H ) :   0.9726
B(  6-C , 11-H ) :   0.9709 B(  7-O ,  8-H ) :   0.9138

Dispersion correction           -0.000247424
FINAL SINGLE POINT ENERGY      -115.731168068224

DIPOLE MOMENT
-------------
                                X             Y             Z
Electronic contribution:     -0.38002       1.27763       1.30550
Nuclear contribution   :      0.87961      -1.78494      -1.33758
                        -----------------------------------------
Total Dipole Moment    :      0.49960      -0.50731      -0.03208
                        -----------------------------------------
Magnitude (a.u.)       :      0.71273
Magnitude (Debye)      :      1.81162

Rotational constants in cm-1:     4.263072     0.808405     0.787162
Rotational constants in MHz : 127803.679176 24235.376692 23598.532294

                             ****ORCA TERMINATED NORMALLY****
TOTAL RUN TIME: 0 days 0 hours 0 minutes 37 seconds 857 msec
