                         Program Version 4.1.2  - RELEASE  -
|  1> #Run DFT-D3 single point of the dimer
|  2> ! wB97X-D3 def2-TZVP TIGHTSCF CHELPG PMODEL PAL8
|  3>
|  4> %base "18-177_DFT_AB"
|  5>
|  6> %scf
|  7> MaxIter 1000
|  8> end
|  9>
| 10> * xyz 0 1
| 11>   C                      -2.983319            7.102537             -11.299652
| 12>   O                      -2.250122            7.888422             -10.348994
| 13>   H                      -2.956250            8.479641             -10.004747
| 14>   H                      -2.905947            6.096993             -10.950046
| 15>   H                      -4.085312            7.291755             -11.297916
| 16>   H                      -2.581351            7.153413             -12.315801
| 17>   C                      0.144533             7.444770             -7.804987
| 18>   O                      0.144891             6.880795             -9.100725
| 19>   H                      -0.650697            7.358207             -9.428754
| 20>   H                      0.821578             8.332764             -7.724410
| 21>   H                      -0.873954            7.853683             -7.633560
| 22>   H                      0.352665             6.719431             -7.040636
| 23> *
| 24>
| 25> #Run DFT-D3 single point of the molecule with dimer basis set
| 26> $new_job
| 27> %base "18-177_DFT_A"
| 28> ! wB97X-D3 def2-TZVP TIGHTSCF CHELPG PMODEL
| 29>
| 30> %scf
| 31> MaxIter 1000
| 32> end
| 33>
| 34> * xyz 0 1
| 35>   C                      -2.983319            7.102537             -11.299652
| 36>   O                      -2.250122            7.888422             -10.348994
| 37>   H                      -2.956250            8.479641             -10.004747
| 38>   H                      -2.905947            6.096993             -10.950046
| 39>   H                      -4.085312            7.291755             -11.297916
| 40>   H                      -2.581351            7.153413             -12.315801
| 41>   C                    : 0.144533             7.444770             -7.804987
| 42>   O                    : 0.144891             6.880795             -9.100725
| 43>   H                    : -0.650697            7.358207             -9.428754
| 44>   H                    : 0.821578             8.332764             -7.724410
| 45>   H                    : -0.873954            7.853683             -7.633560
| 46>   H                    : 0.352665             6.719431             -7.040636
| 47> *
| 48>
| 49> #Run DFT-D3 single point of the particle with dimer basis set
| 50> $new_job
| 51> %base "18-177_DFT_B"
| 52> ! wB97X-D3 def2-TZVP TIGHTSCF CHELPG PMODEL
| 53>
| 54> %scf
| 55> MaxIter 1000
| 56> end
| 57>
| 58> * xyz 0 1
| 59>   C                    : -2.983319            7.102537             -11.299652
| 60>   O                    : -2.250122            7.888422             -10.348994
| 61>   H                    : -2.956250            8.479641             -10.004747
| 62>   H                    : -2.905947            6.096993             -10.950046
| 63>   H                    : -4.085312            7.291755             -11.297916
| 64>   H                    : -2.581351            7.153413             -12.315801
| 65>   C                      0.144533             7.444770             -7.804987
| 66>   O                      0.144891             6.880795             -9.100725
| 67>   H                      -0.650697            7.358207             -9.428754
| 68>   H                      0.821578             8.332764             -7.724410
| 69>   H                      -0.873954            7.853683             -7.633560
| 70>   H                      0.352665             6.719431             -7.040636
| 71> *
| 72>
| 73>                          ****END OF INPUT****
 Total Charge           Charge          ....    0
 Multiplicity           Mult            ....    1
 Number of Electrons    NEL             ....   36
Dispersion correction           -0.001682115
FINAL SINGLE POINT ENERGY      -231.468666349686
Dispersion correction           -0.000246966
FINAL SINGLE POINT ENERGY      -115.731044042633

CARTESIAN COORDINATES (ANGSTROEM)
---------------------------------
  C     -2.983319    7.102537  -11.299652
  O     -2.250122    7.888422  -10.348994
  H     -2.956250    8.479641  -10.004747
  H     -2.905947    6.096993  -10.950046
  H     -4.085312    7.291755  -11.297916
  H     -2.581351    7.153413  -12.315801
  C      0.144533    7.444770   -7.804987
  O      0.144891    6.880795   -9.100725
  H     -0.650697    7.358207   -9.428754
  H      0.821578    8.332764   -7.724410
  H     -0.873954    7.853683   -7.633560
  H      0.352665    6.719431   -7.040636

 Multiplicity           Mult            ....    1
 Number of Electrons    NEL             ....   18
 Basis Dimension        Dim             ....  172

ORBITAL ENERGIES
----------------

  NO   OCC          E(Eh)            E(eV)
   0   2.0000     -19.235355      -523.4206
   1   2.0000     -10.316975      -280.7392
   2   2.0000      -1.141277       -31.0557
   3   2.0000      -0.786707       -21.4074
   4   2.0000      -0.610785       -16.6203
   5   2.0000      -0.543566       -14.7912
   6   2.0000      -0.526862       -14.3367
   7   2.0000      -0.440279       -11.9806
   8   2.0000      -0.374388       -10.1876
   9   0.0000       0.068084         1.8527
  10   0.0000       0.123526         3.3613
  11   0.0000       0.155610         4.2344
  12   0.0000       0.168640         4.5889
  13   0.0000       0.196173         5.3381

MULLIKEN ATOMIC CHARGES
-----------------------
   0 C :   -0.000229
   1 O :   -0.002423
   2 H :    0.000088
   3 H :   -0.001362
   4 H :   -0.000017
   5 H :   -0.000011
   6 C :   -0.170976
   7 O :   -0.451077
   8 H :    0.316262
   9 H :    0.099025
  10 H :    0.090406
  11 H :    0.120313
Sum of atomic charges:   -0.0000000

LOEWDIN ATOMIC CHARGES
----------------------
   0 C :   -0.003120
   1 O :   -0.020879
   2 H :   -0.000937
   3 H :   -0.000732
   4 H :   -0.000045
   5 H :   -0.000076
   6 C :   -0.394134
   7 O :   -0.076688
   8 H :    0.201120
   9 H :    0.099477
  10 H :    0.098016
  11 H :    0.097998

  Mayer bond orders larger than 0.1
B(  6-C ,  7-O ) :   1.0054 B(  6-C ,  9-H ) :   0.9705 B(  6-C , 10-H ) :   0.9951
B(  6-C , 11-H ) :   0.9716 B(  7-O ,  8-H ) :   0.9052

Dispersion correction           -0.000219988
FINAL SINGLE POINT ENERGY      -115.728745531059

DIPOLE MOMENT
-------------
                                X             Y             Z
Electronic contribution:      0.26346      -0.96253      -1.62393
Nuclear contribution   :     -0.76175       1.45012       1.92046
                        -----------------------------------------
Total Dipole Moment    :     -0.49829       0.48759       0.29653
                        -----------------------------------------
Magnitude (a.u.)       :      0.75761
Magnitude (Debye)      :      1.92568

Rotational constants in cm-1:     4.108806     0.845476     0.811555
Rotational constants in MHz : 123178.892061 25346.723612 24329.819715

                             ****ORCA TERMINATED NORMALLY****
TOTAL RUN TIME: 0 days 0 hours 0 minutes 57 seconds 140 msec
