                         Program Version 4.1.2  - RELEASE  -
|  1> #Run DFT-D3 single point of the dimer
|  2> ! wB97X-D3 def2-TZVP TIGHTSCF CHELPG PMODEL PAL8
|  3>
|  4> %base "16-135_DFT_AB"
|  5>
|  6> %scf
|  7> MaxIter 1000
|  8> end
|  9>
| 10> * xyz 0 1
| 11>   C                      -3.015513            4.657646             8.973627
| 12>   O                      -1.868843            4.290034             9.722191
| 13>   H                      -1.130121            4.887643             9.436925
| 14>   H                      -2.824309            4.660446             7.877721
| 15>   H                      -3.872396            3.998280             9.281944
| 16>   H                      -3.256881            5.665914             9.192009
| 17>   C                      1.445543             6.271822             7.864828
| 18>   O                      0.619448             5.105705             7.883585
| 19>   H                      1.042122             4.627553             8.589441
| 20>   H                      1.205711             6.888363             8.726111
| 21>   H                      2.581618             6.086424             7.823544
| 22>   H                      1.035779             6.923905             7.011461
| 23> *
| 24>
| 25> #Run DFT-D3 single point of the molecule with dimer basis set
| 26> $new_job
| 27> %base "16-135_DFT_A"
| 28> ! wB97X-D3 def2-TZVP TIGHTSCF CHELPG PMODEL
| 29>
| 30> %scf
| 31> MaxIter 1000
| 32> end
| 33>
| 34> * xyz 0 1
| 35>   C                      -3.015513            4.657646             8.973627
| 36>   O                      -1.868843            4.290034             9.722191
| 37>   H                      -1.130121            4.887643             9.436925
| 38>   H                      -2.824309            4.660446             7.877721
| 39>   H                      -3.872396            3.998280             9.281944
| 40>   H                      -3.256881            5.665914             9.192009
| 41>   C                    : 1.445543             6.271822             7.864828
| 42>   O                    : 0.619448             5.105705             7.883585
| 43>   H                    : 1.042122             4.627553             8.589441
| 44>   H                    : 1.205711             6.888363             8.726111
| 45>   H                    : 2.581618             6.086424             7.823544
| 46>   H                    : 1.035779             6.923905             7.011461
| 47> *
| 48>
| 49> #Run DFT-D3 single point of the particle with dimer basis set
| 50> $new_job
| 51> %base "16-135_DFT_B"
| 52> ! wB97X-D3 def2-TZVP TIGHTSCF CHELPG PMODEL
| 53>
| 54> %scf
| 55> MaxIter 1000
| 56> end
| 57>
| 58> * xyz 0 1
| 59>   C                    : -3.015513            4.657646             8.973627
| 60>   O                    : -1.868843            4.290034             9.722191
| 61>   H                    : -1.130121            4.887643             9.436925
| 62>   H                    : -2.824309            4.660446             7.877721
| 63>   H                    : -3.872396            3.998280             9.281944
| 64>   H                    : -3.256881            5.665914             9.192009
| 65>   C                      1.445543             6.271822             7.864828
| 66>   O                      0.619448             5.105705             7.883585
| 67>   H                      1.042122             4.627553             8.589441
| 68>   H                      1.205711             6.888363             8.726111
| 69>   H                      2.581618             6.086424             7.823544
| 70>   H                      1.035779             6.923905             7.011461
| 71> *
| 72>
| 73>                          ****END OF INPUT****
 Total Charge           Charge          ....    0
 Multiplicity           Mult            ....    1
 Number of Electrons    NEL             ....   36
Dispersion correction           -0.001533525
FINAL SINGLE POINT ENERGY      -231.466423248427
Dispersion correction           -0.000231480
FINAL SINGLE POINT ENERGY      -115.733314652548

CARTESIAN COORDINATES (ANGSTROEM)
---------------------------------
  C     -3.015513    4.657646    8.973627
  O     -1.868843    4.290034    9.722191
  H     -1.130121    4.887643    9.436925
  H     -2.824309    4.660446    7.877721
  H     -3.872396    3.998280    9.281944
  H     -3.256881    5.665914    9.192009
  C      1.445543    6.271822    7.864828
  O      0.619448    5.105705    7.883585
  H      1.042122    4.627553    8.589441
  H      1.205711    6.888363    8.726111
  H      2.581618    6.086424    7.823544
  H      1.035779    6.923905    7.011461

 Multiplicity           Mult            ....    1
 Number of Electrons    NEL             ....   18
 Basis Dimension        Dim             ....  172

ORBITAL ENERGIES
----------------

  NO   OCC          E(Eh)            E(eV)
   0   2.0000     -19.235313      -523.4195
   1   2.0000     -10.325495      -280.9710
   2   2.0000      -1.141812       -31.0703
   3   2.0000      -0.786162       -21.3925
   4   2.0000      -0.608353       -16.5541
   5   2.0000      -0.541169       -14.7260
   6   2.0000      -0.515648       -14.0315
   7   2.0000      -0.443072       -12.0566
   8   2.0000      -0.376036       -10.2325
   9   0.0000       0.094977         2.5844
  10   0.0000       0.121049         3.2939
  11   0.0000       0.150984         4.1085
  12   0.0000       0.181652         4.9430
  13   0.0000       0.186170         5.0659

MULLIKEN ATOMIC CHARGES
-----------------------
   0 C :    0.003996
   1 O :    0.002401
   2 H :   -0.017537
   3 H :   -0.002237
   4 H :   -0.000058
   5 H :   -0.000492
   6 C :   -0.204153
   7 O :   -0.442250
   8 H :    0.312158
   9 H :    0.115954
  10 H :    0.112204
  11 H :    0.120013
Sum of atomic charges:   -0.0000000

LOEWDIN ATOMIC CHARGES
----------------------
   0 C :   -0.002102
   1 O :   -0.002106
   2 H :   -0.018984
   3 H :   -0.000923
   4 H :   -0.000025
   5 H :   -0.000059
   6 C :   -0.398458
   7 O :   -0.063013
   8 H :    0.166739
   9 H :    0.092465
  10 H :    0.106223
  11 H :    0.120243

  Mayer bond orders larger than 0.1
B(  6-C ,  7-O ) :   1.0009 B(  6-C ,  9-H ) :   0.9729 B(  6-C , 10-H ) :   0.9635
B(  6-C , 11-H ) :   0.9754 B(  7-O ,  8-H ) :   0.9046

Dispersion correction           -0.000241858
FINAL SINGLE POINT ENERGY      -115.728556898155

DIPOLE MOMENT
-------------
                                X             Y             Z
Electronic contribution:     -1.04690      -1.55391      -0.09802
Nuclear contribution   :      1.60988       1.71655       0.53158
                        -----------------------------------------
Total Dipole Moment    :      0.56298       0.16264       0.43355
                        -----------------------------------------
Magnitude (a.u.)       :      0.72894
Magnitude (Debye)      :      1.85283

Rotational constants in cm-1:     4.009011     0.827013     0.786506
Rotational constants in MHz : 120187.134026 24793.225504 23578.849549

                             ****ORCA TERMINATED NORMALLY****
TOTAL RUN TIME: 0 days 0 hours 1 minutes 5 seconds 268 msec
