                         Program Version 4.1.2  - RELEASE  -
|  1> #Run DFT-D3 single point of the dimer
|  2> ! wB97X-D3 def2-TZVP TIGHTSCF CHELPG PMODEL PAL8
|  3>
|  4> %base "21-60_DFT_AB"
|  5>
|  6> %scf
|  7> MaxIter 1000
|  8> end
|  9>
| 10> * xyz 0 1
| 11>   C                      -5.021241            -8.045832            2.494545
| 12>   O                      -5.989247            -7.308026            3.203133
| 13>   H                      -6.772489            -7.218520            2.640288
| 14>   H                      -4.100609            -8.060883            3.101031
| 15>   H                      -5.262900            -9.056602            2.291049
| 16>   H                      -4.833772            -7.685138            1.454732
| 17>   C                      -8.011818            -10.170365           6.811941
| 18>   O                      -9.283217            -10.729772           6.767037
| 19>   H                      -9.970789            -10.188173           6.350972
| 20>   H                      -7.501096            -9.856722            5.909643
| 21>   H                      -8.006873            -9.270922            7.495222
| 22>   H                      -7.189989            -10.724177           7.235973
| 23> *
| 24>
| 25> #Run DFT-D3 single point of the molecule with dimer basis set
| 26> $new_job
| 27> %base "21-60_DFT_A"
| 28> ! wB97X-D3 def2-TZVP TIGHTSCF CHELPG PMODEL
| 29>
| 30> %scf
| 31> MaxIter 1000
| 32> end
| 33>
| 34> * xyz 0 1
| 35>   C                      -5.021241            -8.045832            2.494545
| 36>   O                      -5.989247            -7.308026            3.203133
| 37>   H                      -6.772489            -7.218520            2.640288
| 38>   H                      -4.100609            -8.060883            3.101031
| 39>   H                      -5.262900            -9.056602            2.291049
| 40>   H                      -4.833772            -7.685138            1.454732
| 41>   C                    : -8.011818            -10.170365           6.811941
| 42>   O                    : -9.283217            -10.729772           6.767037
| 43>   H                    : -9.970789            -10.188173           6.350972
| 44>   H                    : -7.501096            -9.856722            5.909643
| 45>   H                    : -8.006873            -9.270922            7.495222
| 46>   H                    : -7.189989            -10.724177           7.235973
| 47> *
| 48>
| 49> #Run DFT-D3 single point of the particle with dimer basis set
| 50> $new_job
| 51> %base "21-60_DFT_B"
| 52> ! wB97X-D3 def2-TZVP TIGHTSCF CHELPG PMODEL
| 53>
| 54> %scf
| 55> MaxIter 1000
| 56> end
| 57>
| 58> * xyz 0 1
| 59>   C                    : -5.021241            -8.045832            2.494545
| 60>   O                    : -5.989247            -7.308026            3.203133
| 61>   H                    : -6.772489            -7.218520            2.640288
| 62>   H                    : -4.100609            -8.060883            3.101031
| 63>   H                    : -5.262900            -9.056602            2.291049
| 64>   H                    : -4.833772            -7.685138            1.454732
| 65>   C                      -8.011818            -10.170365           6.811941
| 66>   O                      -9.283217            -10.729772           6.767037
| 67>   H                      -9.970789            -10.188173           6.350972
| 68>   H                      -7.501096            -9.856722            5.909643
| 69>   H                      -8.006873            -9.270922            7.495222
| 70>   H                      -7.189989            -10.724177           7.235973
| 71> *
| 72>
| 73>                          ****END OF INPUT****
 Total Charge           Charge          ....    0
 Multiplicity           Mult            ....    1
 Number of Electrons    NEL             ....   36
Dispersion correction           -0.000749202
FINAL SINGLE POINT ENERGY      -231.458533709972
Dispersion correction           -0.000248837
FINAL SINGLE POINT ENERGY      -115.733612937099

CARTESIAN COORDINATES (ANGSTROEM)
---------------------------------
  C     -5.021241   -8.045832    2.494545
  O     -5.989247   -7.308026    3.203133
  H     -6.772489   -7.218520    2.640288
  H     -4.100609   -8.060883    3.101031
  H     -5.262900   -9.056602    2.291049
  H     -4.833772   -7.685138    1.454732
  C     -8.011818  -10.170365    6.811941
  O     -9.283217  -10.729772    6.767037
  H     -9.970789  -10.188173    6.350972
  H     -7.501096   -9.856722    5.909643
  H     -8.006873   -9.270922    7.495222
  H     -7.189989  -10.724177    7.235973

 Multiplicity           Mult            ....    1
 Number of Electrons    NEL             ....   18
 Basis Dimension        Dim             ....  172

ORBITAL ENERGIES
----------------

  NO   OCC          E(Eh)            E(eV)
   0   2.0000     -19.234967      -523.4101
   1   2.0000     -10.313214      -280.6368
   2   2.0000      -1.139625       -31.0108
   3   2.0000      -0.802981       -21.8502
   4   2.0000      -0.624329       -16.9888
   5   2.0000      -0.537737       -14.6326
   6   2.0000      -0.530451       -14.4343
   7   2.0000      -0.417385       -11.3576
   8   2.0000      -0.373455       -10.1622
   9   0.0000       0.080625         2.1939
  10   0.0000       0.117062         3.1854
  11   0.0000       0.142037         3.8650
  12   0.0000       0.163618         4.4523
  13   0.0000       0.185180         5.0390

MULLIKEN ATOMIC CHARGES
-----------------------
   0 C :   -0.000034
   1 O :   -0.000002
   2 H :   -0.000019
   3 H :    0.000000
   4 H :   -0.000039
   5 H :   -0.000003
   6 C :   -0.158929
   7 O :   -0.483186
   8 H :    0.327907
   9 H :    0.098725
  10 H :    0.091199
  11 H :    0.124380
Sum of atomic charges:   -0.0000000

LOEWDIN ATOMIC CHARGES
----------------------
   0 C :   -0.000120
   1 O :   -0.000064
   2 H :   -0.000030
   3 H :   -0.000003
   4 H :   -0.000026
   5 H :   -0.000003
   6 C :   -0.417939
   7 O :   -0.059421
   8 H :    0.179384
   9 H :    0.091227
  10 H :    0.099377
  11 H :    0.107618

  Mayer bond orders larger than 0.1
B(  6-C ,  7-O ) :   1.0059 B(  6-C ,  9-H ) :   0.9690 B(  6-C , 10-H ) :   0.9875
B(  6-C , 11-H ) :   0.9688 B(  7-O ,  8-H ) :   0.8843

Dispersion correction           -0.000284164
FINAL SINGLE POINT ENERGY      -115.724414197327

DIPOLE MOMENT
-------------
                                X             Y             Z
Electronic contribution:     -1.79749      -1.01768      -0.13383
Nuclear contribution   :      1.86351       1.56984      -0.12599
                        -----------------------------------------
Total Dipole Moment    :      0.06602       0.55216      -0.25982
                        -----------------------------------------
Magnitude (a.u.)       :      0.61379
Magnitude (Debye)      :      1.56014

Rotational constants in cm-1:     4.752977     0.812839     0.796807
Rotational constants in MHz : 142490.657128 24368.286885 23887.662747

                             ****ORCA TERMINATED NORMALLY****
TOTAL RUN TIME: 0 days 0 hours 1 minutes 2 seconds 75 msec
