                         Program Version 4.1.2  - RELEASE  -
|  1> #Run DFT-D3 single point of the dimer
|  2> ! wB97X-D3 def2-TZVP TIGHTSCF CHELPG PMODEL PAL8
|  3>
|  4> %base "16-154_DFT_AB"
|  5>
|  6> %scf
|  7> MaxIter 1000
|  8> end
|  9>
| 10> * xyz 0 1
| 11>   C                      2.189674             -1.010247            4.700833
| 12>   O                      1.194320             -0.027531            4.920133
| 13>   H                      0.505740             -0.402246            5.447141
| 14>   H                      2.137842             -1.454078            3.693112
| 15>   H                      3.265044             -0.626373            4.644516
| 16>   H                      2.152488             -1.850272            5.418308
| 17>   C                      0.616315             -1.722564            7.867964
| 18>   O                      -0.312856            -0.731527            7.352278
| 19>   H                      -0.617789            -0.343711            8.129740
| 20>   H                      1.133022             -2.386465            7.183482
| 21>   H                      1.368434             -1.159946            8.432065
| 22>   H                      0.099027             -2.352631            8.520119
| 23> *
| 24>
| 25> #Run DFT-D3 single point of the molecule with dimer basis set
| 26> $new_job
| 27> %base "16-154_DFT_A"
| 28> ! wB97X-D3 def2-TZVP TIGHTSCF CHELPG PMODEL
| 29>
| 30> %scf
| 31> MaxIter 1000
| 32> end
| 33>
| 34> * xyz 0 1
| 35>   C                      2.189674             -1.010247            4.700833
| 36>   O                      1.194320             -0.027531            4.920133
| 37>   H                      0.505740             -0.402246            5.447141
| 38>   H                      2.137842             -1.454078            3.693112
| 39>   H                      3.265044             -0.626373            4.644516
| 40>   H                      2.152488             -1.850272            5.418308
| 41>   C                    : 0.616315             -1.722564            7.867964
| 42>   O                    : -0.312856            -0.731527            7.352278
| 43>   H                    : -0.617789            -0.343711            8.129740
| 44>   H                    : 1.133022             -2.386465            7.183482
| 45>   H                    : 1.368434             -1.159946            8.432065
| 46>   H                    : 0.099027             -2.352631            8.520119
| 47> *
| 48>
| 49> #Run DFT-D3 single point of the particle with dimer basis set
| 50> $new_job
| 51> %base "16-154_DFT_B"
| 52> ! wB97X-D3 def2-TZVP TIGHTSCF CHELPG PMODEL
| 53>
| 54> %scf
| 55> MaxIter 1000
| 56> end
| 57>
| 58> * xyz 0 1
| 59>   C                    : 2.189674             -1.010247            4.700833
| 60>   O                    : 1.194320             -0.027531            4.920133
| 61>   H                    : 0.505740             -0.402246            5.447141
| 62>   H                    : 2.137842             -1.454078            3.693112
| 63>   H                    : 3.265044             -0.626373            4.644516
| 64>   H                    : 2.152488             -1.850272            5.418308
| 65>   C                      0.616315             -1.722564            7.867964
| 66>   O                      -0.312856            -0.731527            7.352278
| 67>   H                      -0.617789            -0.343711            8.129740
| 68>   H                      1.133022             -2.386465            7.183482
| 69>   H                      1.368434             -1.159946            8.432065
| 70>   H                      0.099027             -2.352631            8.520119
| 71> *
| 72>
| 73>                          ****END OF INPUT****
 Total Charge           Charge          ....    0
 Multiplicity           Mult            ....    1
 Number of Electrons    NEL             ....   36
Dispersion correction           -0.002103291
FINAL SINGLE POINT ENERGY      -231.463230248163
Dispersion correction           -0.000273006
FINAL SINGLE POINT ENERGY      -115.731209308334

CARTESIAN COORDINATES (ANGSTROEM)
---------------------------------
  C      2.189674   -1.010247    4.700833
  O      1.194320   -0.027531    4.920133
  H      0.505740   -0.402246    5.447141
  H      2.137842   -1.454078    3.693112
  H      3.265044   -0.626373    4.644516
  H      2.152488   -1.850272    5.418308
  C      0.616315   -1.722564    7.867964
  O     -0.312856   -0.731527    7.352278
  H     -0.617789   -0.343711    8.129740
  H      1.133022   -2.386465    7.183482
  H      1.368434   -1.159946    8.432065
  H      0.099027   -2.352631    8.520119

 Multiplicity           Mult            ....    1
 Number of Electrons    NEL             ....   18
 Basis Dimension        Dim             ....  172

ORBITAL ENERGIES
----------------

  NO   OCC          E(Eh)            E(eV)
   0   2.0000     -19.226810      -523.1881
   1   2.0000     -10.311972      -280.6030
   2   2.0000      -1.137408       -30.9504
   3   2.0000      -0.803369       -21.8608
   4   2.0000      -0.604902       -16.4602
   5   2.0000      -0.547043       -14.8858
   6   2.0000      -0.533044       -14.5049
   7   2.0000      -0.439488       -11.9591
   8   2.0000      -0.375584       -10.2202
   9   0.0000       0.096977         2.6389
  10   0.0000       0.124887         3.3984
  11   0.0000       0.152863         4.1596
  12   0.0000       0.193177         5.2566
  13   0.0000       0.199144         5.4190

MULLIKEN ATOMIC CHARGES
-----------------------
   0 C :    0.000428
   1 O :   -0.000533
   2 H :   -0.008880
   3 H :    0.000044
   4 H :   -0.000079
   5 H :    0.000386
   6 C :   -0.182508
   7 O :   -0.457910
   8 H :    0.302237
   9 H :    0.123710
  10 H :    0.108526
  11 H :    0.114579
Sum of atomic charges:   -0.0000000

LOEWDIN ATOMIC CHARGES
----------------------
   0 C :   -0.004839
   1 O :   -0.004555
   2 H :   -0.026485
   3 H :   -0.000017
   4 H :   -0.000023
   5 H :   -0.007563
   6 C :   -0.339567
   7 O :   -0.059927
   8 H :    0.142401
   9 H :    0.112684
  10 H :    0.100815
  11 H :    0.087075

  Mayer bond orders larger than 0.1
B(  6-C ,  7-O ) :   0.9714 B(  6-C ,  9-H ) :   0.9731 B(  6-C , 10-H ) :   0.9893
B(  6-C , 11-H ) :   0.9752 B(  7-O ,  8-H ) :   0.9114

Dispersion correction           -0.000219427
FINAL SINGLE POINT ENERGY      -115.727003610538

DIPOLE MOMENT
-------------
                                X             Y             Z
Electronic contribution:     -1.14561       1.12012      -0.89470
Nuclear contribution   :      1.33864      -1.31891       1.61290
                        -----------------------------------------
Total Dipole Moment    :      0.19303      -0.19879       0.71820
                        -----------------------------------------
Magnitude (a.u.)       :      0.76980
Magnitude (Debye)      :      1.95668

Rotational constants in cm-1:     4.505749     0.803121     0.777786
Rotational constants in MHz : 135078.956395 24076.957788 23317.440600

                             ****ORCA TERMINATED NORMALLY****
TOTAL RUN TIME: 0 days 0 hours 0 minutes 57 seconds 616 msec
