                         Program Version 4.1.2  - RELEASE  -
|  1> #Run DFT-D3 single point of the dimer
|  2> ! wB97X-D3 def2-TZVP TIGHTSCF CHELPG PMODEL PAL8
|  3>
|  4> %base "4-123_DFT_AB"
|  5>
|  6> %scf
|  7> MaxIter 1000
|  8> end
|  9>
| 10> * xyz 0 1
| 11>   C                      9.259929             9.340491             6.579696
| 12>   O                      8.283990             8.796414             5.726483
| 13>   H                      8.184360             9.462535             4.981736
| 14>   H                      8.917364             9.644283             7.550036
| 15>   H                      10.140764            8.691353             6.699170
| 16>   H                      9.716501             10.227955            6.261082
| 17>   C                      4.264224             9.550144             6.218596
| 18>   O                      4.588996             8.759427             5.073923
| 19>   H                      4.627013             9.333018             4.330637
| 20>   H                      3.395416             10.202376            6.075310
| 21>   H                      4.016887             8.866824             7.026298
| 22>   H                      5.004359             10.190719            6.491255
| 23> *
| 24>
| 25> #Run DFT-D3 single point of the molecule with dimer basis set
| 26> $new_job
| 27> %base "4-123_DFT_A"
| 28> ! wB97X-D3 def2-TZVP TIGHTSCF CHELPG PMODEL
| 29>
| 30> %scf
| 31> MaxIter 1000
| 32> end
| 33>
| 34> * xyz 0 1
| 35>   C                      9.259929             9.340491             6.579696
| 36>   O                      8.283990             8.796414             5.726483
| 37>   H                      8.184360             9.462535             4.981736
| 38>   H                      8.917364             9.644283             7.550036
| 39>   H                      10.140764            8.691353             6.699170
| 40>   H                      9.716501             10.227955            6.261082
| 41>   C                    : 4.264224             9.550144             6.218596
| 42>   O                    : 4.588996             8.759427             5.073923
| 43>   H                    : 4.627013             9.333018             4.330637
| 44>   H                    : 3.395416             10.202376            6.075310
| 45>   H                    : 4.016887             8.866824             7.026298
| 46>   H                    : 5.004359             10.190719            6.491255
| 47> *
| 48>
| 49> #Run DFT-D3 single point of the particle with dimer basis set
| 50> $new_job
| 51> %base "4-123_DFT_B"
| 52> ! wB97X-D3 def2-TZVP TIGHTSCF CHELPG PMODEL
| 53>
| 54> %scf
| 55> MaxIter 1000
| 56> end
| 57>
| 58> * xyz 0 1
| 59>   C                    : 9.259929             9.340491             6.579696
| 60>   O                    : 8.283990             8.796414             5.726483
| 61>   H                    : 8.184360             9.462535             4.981736
| 62>   H                    : 8.917364             9.644283             7.550036
| 63>   H                    : 10.140764            8.691353             6.699170
| 64>   H                    : 9.716501             10.227955            6.261082
| 65>   C                      4.264224             9.550144             6.218596
| 66>   O                      4.588996             8.759427             5.073923
| 67>   H                      4.627013             9.333018             4.330637
| 68>   H                      3.395416             10.202376            6.075310
| 69>   H                      4.016887             8.866824             7.026298
| 70>   H                      5.004359             10.190719            6.491255
| 71> *
| 72>
| 73>                          ****END OF INPUT****
 Total Charge           Charge          ....    0
 Multiplicity           Mult            ....    1
 Number of Electrons    NEL             ....   36
Dispersion correction           -0.001154338
FINAL SINGLE POINT ENERGY      -231.458500224695
Dispersion correction           -0.000254936
FINAL SINGLE POINT ENERGY      -115.727763216640

CARTESIAN COORDINATES (ANGSTROEM)
---------------------------------
  C      9.259929    9.340491    6.579696
  O      8.283990    8.796414    5.726483
  H      8.184360    9.462535    4.981736
  H      8.917364    9.644283    7.550036
  H     10.140764    8.691353    6.699170
  H      9.716501   10.227955    6.261082
  C      4.264224    9.550144    6.218596
  O      4.588996    8.759427    5.073923
  H      4.627013    9.333018    4.330637
  H      3.395416   10.202376    6.075310
  H      4.016887    8.866824    7.026298
  H      5.004359   10.190719    6.491255

 Multiplicity           Mult            ....    1
 Number of Electrons    NEL             ....   18
 Basis Dimension        Dim             ....  172

ORBITAL ENERGIES
----------------

  NO   OCC          E(Eh)            E(eV)
   0   2.0000     -19.228456      -523.2329
   1   2.0000     -10.304895      -280.4104
   2   2.0000      -1.135749       -30.9053
   3   2.0000      -0.805615       -21.9219
   4   2.0000      -0.617033       -16.7903
   5   2.0000      -0.543522       -14.7900
   6   2.0000      -0.523233       -14.2379
   7   2.0000      -0.440622       -11.9899
   8   2.0000      -0.376240       -10.2380
   9   0.0000       0.085714         2.3324
  10   0.0000       0.119780         3.2594
  11   0.0000       0.154097         4.1932
  12   0.0000       0.176850         4.8123
  13   0.0000       0.195404         5.3172

MULLIKEN ATOMIC CHARGES
-----------------------
   0 C :    0.000083
   1 O :   -0.000563
   2 H :   -0.001376
   3 H :   -0.000024
   4 H :    0.000003
   5 H :   -0.000007
   6 C :   -0.165382
   7 O :   -0.477383
   8 H :    0.308702
   9 H :    0.099479
  10 H :    0.121243
  11 H :    0.115226
Sum of atomic charges:   -0.0000000

LOEWDIN ATOMIC CHARGES
----------------------
   0 C :   -0.000122
   1 O :   -0.001009
   2 H :   -0.000999
   3 H :   -0.000023
   4 H :   -0.000001
   5 H :   -0.000003
   6 C :   -0.361622
   7 O :   -0.074381
   8 H :    0.153518
   9 H :    0.096650
  10 H :    0.110891
  11 H :    0.077100

  Mayer bond orders larger than 0.1
B(  6-C ,  7-O ) :   0.9915 B(  6-C ,  9-H ) :   0.9791 B(  6-C , 10-H ) :   0.9770
B(  6-C , 11-H ) :   0.9727 B(  7-O ,  8-H ) :   0.9063

Dispersion correction           -0.000235162
FINAL SINGLE POINT ENERGY      -115.731948391370

DIPOLE MOMENT
-------------
                                X             Y             Z
Electronic contribution:      0.50762      -1.09068      -1.35665
Nuclear contribution   :     -0.61698       1.79737       1.35699
                        -----------------------------------------
Total Dipole Moment    :     -0.10937       0.70669       0.00034
                        -----------------------------------------
Magnitude (a.u.)       :      0.71510
Magnitude (Debye)      :      1.81764

Rotational constants in cm-1:     4.540289     0.825063     0.789333
Rotational constants in MHz : 136114.446541 24734.759433 23663.620760

                             ****ORCA TERMINATED NORMALLY****
TOTAL RUN TIME: 0 days 0 hours 1 minutes 29 seconds 118 msec
