                         Program Version 4.1.2  - RELEASE  -
|  1> #Run DFT-D3 single point of the dimer
|  2> ! wB97X-D3 def2-TZVP TIGHTSCF CHELPG PMODEL PAL8
|  3>
|  4> %base "17-58_DFT_AB"
|  5>
|  6> %scf
|  7> MaxIter 1000
|  8> end
|  9>
| 10> * xyz 0 1
| 11>   C                      -8.719428            -0.806688            2.256153
| 12>   O                      -10.041191           -1.234781            2.494380
| 13>   H                      -10.144787           -1.521010            3.361301
| 14>   H                      -8.220031            -0.383521            3.209562
| 15>   H                      -8.128405            -1.587988            1.732554
| 16>   H                      -8.726105            0.059084             1.528395
| 17>   C                      -5.627778            -3.957055            4.148896
| 18>   O                      -6.325654            -5.194564            4.234933
| 19>   H                      -5.814133            -5.921400            3.824445
| 20>   H                      -6.307646            -3.150269            3.922174
| 21>   H                      -5.121940            -3.690074            5.074566
| 22>   H                      -4.861529            -3.989166            3.367635
| 23> *
| 24>
| 25> #Run DFT-D3 single point of the molecule with dimer basis set
| 26> $new_job
| 27> %base "17-58_DFT_A"
| 28> ! wB97X-D3 def2-TZVP TIGHTSCF CHELPG PMODEL
| 29>
| 30> %scf
| 31> MaxIter 1000
| 32> end
| 33>
| 34> * xyz 0 1
| 35>   C                      -8.719428            -0.806688            2.256153
| 36>   O                      -10.041191           -1.234781            2.494380
| 37>   H                      -10.144787           -1.521010            3.361301
| 38>   H                      -8.220031            -0.383521            3.209562
| 39>   H                      -8.128405            -1.587988            1.732554
| 40>   H                      -8.726105            0.059084             1.528395
| 41>   C                    : -5.627778            -3.957055            4.148896
| 42>   O                    : -6.325654            -5.194564            4.234933
| 43>   H                    : -5.814133            -5.921400            3.824445
| 44>   H                    : -6.307646            -3.150269            3.922174
| 45>   H                    : -5.121940            -3.690074            5.074566
| 46>   H                    : -4.861529            -3.989166            3.367635
| 47> *
| 48>
| 49> #Run DFT-D3 single point of the particle with dimer basis set
| 50> $new_job
| 51> %base "17-58_DFT_B"
| 52> ! wB97X-D3 def2-TZVP TIGHTSCF CHELPG PMODEL
| 53>
| 54> %scf
| 55> MaxIter 1000
| 56> end
| 57>
| 58> * xyz 0 1
| 59>   C                    : -8.719428            -0.806688            2.256153
| 60>   O                    : -10.041191           -1.234781            2.494380
| 61>   H                    : -10.144787           -1.521010            3.361301
| 62>   H                    : -8.220031            -0.383521            3.209562
| 63>   H                    : -8.128405            -1.587988            1.732554
| 64>   H                    : -8.726105            0.059084             1.528395
| 65>   C                      -5.627778            -3.957055            4.148896
| 66>   O                      -6.325654            -5.194564            4.234933
| 67>   H                      -5.814133            -5.921400            3.824445
| 68>   H                      -6.307646            -3.150269            3.922174
| 69>   H                      -5.121940            -3.690074            5.074566
| 70>   H                      -4.861529            -3.989166            3.367635
| 71> *
| 72>
| 73>                          ****END OF INPUT****
 Total Charge           Charge          ....    0
 Multiplicity           Mult            ....    1
 Number of Electrons    NEL             ....   36
Dispersion correction           -0.000969217
FINAL SINGLE POINT ENERGY      -231.466087461411
Dispersion correction           -0.000267392
FINAL SINGLE POINT ENERGY      -115.730457075281

CARTESIAN COORDINATES (ANGSTROEM)
---------------------------------
  C     -8.719428   -0.806688    2.256153
  O    -10.041191   -1.234781    2.494380
  H    -10.144787   -1.521010    3.361301
  H     -8.220031   -0.383521    3.209562
  H     -8.128405   -1.587988    1.732554
  H     -8.726105    0.059084    1.528395
  C     -5.627778   -3.957055    4.148896
  O     -6.325654   -5.194564    4.234933
  H     -5.814133   -5.921400    3.824445
  H     -6.307646   -3.150269    3.922174
  H     -5.121940   -3.690074    5.074566
  H     -4.861529   -3.989166    3.367635

 Multiplicity           Mult            ....    1
 Number of Electrons    NEL             ....   18
 Basis Dimension        Dim             ....  172

ORBITAL ENERGIES
----------------

  NO   OCC          E(Eh)            E(eV)
   0   2.0000     -19.230039      -523.2760
   1   2.0000     -10.312018      -280.6043
   2   2.0000      -1.127017       -30.6677
   3   2.0000      -0.797362       -21.6973
   4   2.0000      -0.608669       -16.5627
   5   2.0000      -0.536909       -14.6100
   6   2.0000      -0.530398       -14.4329
   7   2.0000      -0.429801       -11.6955
   8   2.0000      -0.372748       -10.1430
   9   0.0000       0.085616         2.3297
  10   0.0000       0.113415         3.0862
  11   0.0000       0.151879         4.1328
  12   0.0000       0.167450         4.5565
  13   0.0000       0.187927         5.1138

MULLIKEN ATOMIC CHARGES
-----------------------
   0 C :    0.000353
   1 O :   -0.000046
   2 H :   -0.000021
   3 H :   -0.000232
   4 H :   -0.000013
   5 H :    0.000034
   6 C :   -0.157498
   7 O :   -0.487573
   8 H :    0.320431
   9 H :    0.119976
  10 H :    0.103733
  11 H :    0.100856
Sum of atomic charges:   -0.0000000

LOEWDIN ATOMIC CHARGES
----------------------
   0 C :   -0.000781
   1 O :   -0.000003
   2 H :   -0.000007
   3 H :   -0.000229
   4 H :   -0.000305
   5 H :   -0.000003
   6 C :   -0.375429
   7 O :   -0.095151
   8 H :    0.179067
   9 H :    0.101808
  10 H :    0.094944
  11 H :    0.096089

  Mayer bond orders larger than 0.1
B(  6-C ,  7-O ) :   1.0088 B(  6-C ,  9-H ) :   0.9738 B(  6-C , 10-H ) :   0.9741
B(  6-C , 11-H ) :   0.9860 B(  7-O ,  8-H ) :   0.8938

Dispersion correction           -0.000257608
FINAL SINGLE POINT ENERGY      -115.735074663223

DIPOLE MOMENT
-------------
                                X             Y             Z
Electronic contribution:     -1.01614      -1.51284       0.17852
Nuclear contribution   :      1.63516       1.55336      -0.49398
                        -----------------------------------------
Total Dipole Moment    :      0.61902       0.04052      -0.31546
                        -----------------------------------------
Magnitude (a.u.)       :      0.69595
Magnitude (Debye)      :      1.76897

Rotational constants in cm-1:     4.382014     0.816615     0.786084
Rotational constants in MHz : 131369.464976 24481.496286 23566.197413

                             ****ORCA TERMINATED NORMALLY****
TOTAL RUN TIME: 0 days 0 hours 1 minutes 11 seconds 439 msec
