                         Program Version 4.1.2  - RELEASE  -
|  1> #Run DFT-D3 single point of the dimer
|  2> ! wB97X-D3 def2-TZVP TIGHTSCF CHELPG PMODEL PAL8
|  3>
|  4> %base "20-88_DFT_AB"
|  5>
|  6> %scf
|  7> MaxIter 1000
|  8> end
|  9>
| 10> * xyz 0 1
| 11>   C                      -5.619514            -0.230082            9.710258
| 12>   O                      -5.919557            0.391140             10.949691
| 13>   H                      -5.148180            1.017697             11.036180
| 14>   H                      -6.402927            -0.922974            9.360529
| 15>   H                      -5.635728            0.617874             8.986753
| 16>   H                      -4.641547            -0.829193            9.755749
| 17>   C                      -9.103809            1.331190             10.624848
| 18>   O                      -10.358254           0.745868             10.767585
| 19>   H                      -11.052019           1.392847             10.751873
| 20>   H                      -8.789318            1.860666             11.567933
| 21>   H                      -8.297768            0.629022             10.384405
| 22>   H                      -9.129461            2.032638             9.768956
| 23> *
| 24>
| 25> #Run DFT-D3 single point of the molecule with dimer basis set
| 26> $new_job
| 27> %base "20-88_DFT_A"
| 28> ! wB97X-D3 def2-TZVP TIGHTSCF CHELPG PMODEL
| 29>
| 30> %scf
| 31> MaxIter 1000
| 32> end
| 33>
| 34> * xyz 0 1
| 35>   C                      -5.619514            -0.230082            9.710258
| 36>   O                      -5.919557            0.391140             10.949691
| 37>   H                      -5.148180            1.017697             11.036180
| 38>   H                      -6.402927            -0.922974            9.360529
| 39>   H                      -5.635728            0.617874             8.986753
| 40>   H                      -4.641547            -0.829193            9.755749
| 41>   C                    : -9.103809            1.331190             10.624848
| 42>   O                    : -10.358254           0.745868             10.767585
| 43>   H                    : -11.052019           1.392847             10.751873
| 44>   H                    : -8.789318            1.860666             11.567933
| 45>   H                    : -8.297768            0.629022             10.384405
| 46>   H                    : -9.129461            2.032638             9.768956
| 47> *
| 48>
| 49> #Run DFT-D3 single point of the particle with dimer basis set
| 50> $new_job
| 51> %base "20-88_DFT_B"
| 52> ! wB97X-D3 def2-TZVP TIGHTSCF CHELPG PMODEL
| 53>
| 54> %scf
| 55> MaxIter 1000
| 56> end
| 57>
| 58> * xyz 0 1
| 59>   C                    : -5.619514            -0.230082            9.710258
| 60>   O                    : -5.919557            0.391140             10.949691
| 61>   H                    : -5.148180            1.017697             11.036180
| 62>   H                    : -6.402927            -0.922974            9.360529
| 63>   H                    : -5.635728            0.617874             8.986753
| 64>   H                    : -4.641547            -0.829193            9.755749
| 65>   C                      -9.103809            1.331190             10.624848
| 66>   O                      -10.358254           0.745868             10.767585
| 67>   H                      -11.052019           1.392847             10.751873
| 68>   H                      -8.789318            1.860666             11.567933
| 69>   H                      -8.297768            0.629022             10.384405
| 70>   H                      -9.129461            2.032638             9.768956
| 71> *
| 72>
| 73>                          ****END OF INPUT****
 Total Charge           Charge          ....    0
 Multiplicity           Mult            ....    1
 Number of Electrons    NEL             ....   36
Dispersion correction           -0.001667235
FINAL SINGLE POINT ENERGY      -231.464029069681
Dispersion correction           -0.000228326
FINAL SINGLE POINT ENERGY      -115.728691129911

CARTESIAN COORDINATES (ANGSTROEM)
---------------------------------
  C     -5.619514   -0.230082    9.710258
  O     -5.919557    0.391140   10.949691
  H     -5.148180    1.017697   11.036180
  H     -6.402927   -0.922974    9.360529
  H     -5.635728    0.617874    8.986753
  H     -4.641547   -0.829193    9.755749
  C     -9.103809    1.331190   10.624848
  O    -10.358254    0.745868   10.767585
  H    -11.052019    1.392847   10.751873
  H     -8.789318    1.860666   11.567933
  H     -8.297768    0.629022   10.384405
  H     -9.129461    2.032638    9.768956

 Multiplicity           Mult            ....    1
 Number of Electrons    NEL             ....   18
 Basis Dimension        Dim             ....  172

ORBITAL ENERGIES
----------------

  NO   OCC          E(Eh)            E(eV)
   0   2.0000     -19.227921      -523.2183
   1   2.0000     -10.317098      -280.7425
   2   2.0000      -1.143237       -31.1091
   3   2.0000      -0.794583       -21.6217
   4   2.0000      -0.614067       -16.7096
   5   2.0000      -0.543089       -14.7782
   6   2.0000      -0.534501       -14.5445
   7   2.0000      -0.422892       -11.5075
   8   2.0000      -0.372089       -10.1251
   9   0.0000       0.083737         2.2786
  10   0.0000       0.117289         3.1916
  11   0.0000       0.155473         4.2306
  12   0.0000       0.166158         4.5214
  13   0.0000       0.187707         5.1078

MULLIKEN ATOMIC CHARGES
-----------------------
   0 C :    0.000020
   1 O :   -0.000002
   2 H :   -0.000041
   3 H :    0.000158
   4 H :   -0.000293
   5 H :    0.000051
   6 C :   -0.155618
   7 O :   -0.473964
   8 H :    0.318351
   9 H :    0.093818
  10 H :    0.120851
  11 H :    0.096670
Sum of atomic charges:    0.0000000

LOEWDIN ATOMIC CHARGES
----------------------
   0 C :   -0.006480
   1 O :   -0.005321
   2 H :   -0.000269
   3 H :   -0.001480
   4 H :   -0.000423
   5 H :   -0.000070
   6 C :   -0.401934
   7 O :   -0.057551
   8 H :    0.163504
   9 H :    0.099680
  10 H :    0.113386
  11 H :    0.096959

  Mayer bond orders larger than 0.1
B(  6-C ,  7-O ) :   1.0118 B(  6-C ,  9-H ) :   0.9744 B(  6-C , 10-H ) :   0.9701
B(  6-C , 11-H ) :   0.9839 B(  7-O ,  8-H ) :   0.8960

Dispersion correction           -0.000243396
FINAL SINGLE POINT ENERGY      -115.734158180317

DIPOLE MOMENT
-------------
                                X             Y             Z
Electronic contribution:     -1.60306      -0.94491       0.20087
Nuclear contribution   :      1.64182       1.57636      -0.28790
                        -----------------------------------------
Total Dipole Moment    :      0.03877       0.63146      -0.08702
                        -----------------------------------------
Magnitude (a.u.)       :      0.63860
Magnitude (Debye)      :      1.62320

Rotational constants in cm-1:     4.308053     0.837882     0.817785
Rotational constants in MHz : 129152.166091 25119.083856 24516.578856

                             ****ORCA TERMINATED NORMALLY****
TOTAL RUN TIME: 0 days 0 hours 0 minutes 56 seconds 829 msec
