                         Program Version 4.1.2  - RELEASE  -
|  1> #Run DFT-D3 single point of the dimer
|  2> ! wB97X-D3 def2-TZVP TIGHTSCF CHELPG PMODEL PAL8
|  3>
|  4> %base "6-86_DFT_AB"
|  5>
|  6> %scf
|  7> MaxIter 1000
|  8> end
|  9>
| 10> * xyz 0 1
| 11>   C                      -4.592135            -8.778354            -4.672863
| 12>   O                      -4.996036            -7.685713            -3.782804
| 13>   H                      -4.696775            -7.821721            -2.928204
| 14>   H                      -3.534098            -9.010149            -4.638917
| 15>   H                      -5.112055            -9.688766            -4.343416
| 16>   H                      -4.938609            -8.647915            -5.698391
| 17>   C                      -8.445493            -8.970130            -4.854206
| 18>   O                      -8.017802            -7.780102            -4.192858
| 19>   H                      -7.371794            -8.082310            -3.518202
| 20>   H                      -7.667037            -9.755791            -4.931403
| 21>   H                      -9.267876            -9.327560            -4.164710
| 22>   H                      -8.935685            -8.943218            -5.800736
| 23> *
| 24>
| 25> #Run DFT-D3 single point of the molecule with dimer basis set
| 26> $new_job
| 27> %base "6-86_DFT_A"
| 28> ! wB97X-D3 def2-TZVP TIGHTSCF CHELPG PMODEL
| 29>
| 30> %scf
| 31> MaxIter 1000
| 32> end
| 33>
| 34> * xyz 0 1
| 35>   C                      -4.592135            -8.778354            -4.672863
| 36>   O                      -4.996036            -7.685713            -3.782804
| 37>   H                      -4.696775            -7.821721            -2.928204
| 38>   H                      -3.534098            -9.010149            -4.638917
| 39>   H                      -5.112055            -9.688766            -4.343416
| 40>   H                      -4.938609            -8.647915            -5.698391
| 41>   C                    : -8.445493            -8.970130            -4.854206
| 42>   O                    : -8.017802            -7.780102            -4.192858
| 43>   H                    : -7.371794            -8.082310            -3.518202
| 44>   H                    : -7.667037            -9.755791            -4.931403
| 45>   H                    : -9.267876            -9.327560            -4.164710
| 46>   H                    : -8.935685            -8.943218            -5.800736
| 47> *
| 48>
| 49> #Run DFT-D3 single point of the particle with dimer basis set
| 50> $new_job
| 51> %base "6-86_DFT_B"
| 52> ! wB97X-D3 def2-TZVP TIGHTSCF CHELPG PMODEL
| 53>
| 54> %scf
| 55> MaxIter 1000
| 56> end
| 57>
| 58> * xyz 0 1
| 59>   C                    : -4.592135            -8.778354            -4.672863
| 60>   O                    : -4.996036            -7.685713            -3.782804
| 61>   H                    : -4.696775            -7.821721            -2.928204
| 62>   H                    : -3.534098            -9.010149            -4.638917
| 63>   H                    : -5.112055            -9.688766            -4.343416
| 64>   H                    : -4.938609            -8.647915            -5.698391
| 65>   C                      -8.445493            -8.970130            -4.854206
| 66>   O                      -8.017802            -7.780102            -4.192858
| 67>   H                      -7.371794            -8.082310            -3.518202
| 68>   H                      -7.667037            -9.755791            -4.931403
| 69>   H                      -9.267876            -9.327560            -4.164710
| 70>   H                      -8.935685            -8.943218            -5.800736
| 71> *
| 72>
| 73>                          ****END OF INPUT****
 Total Charge           Charge          ....    0
 Multiplicity           Mult            ....    1
 Number of Electrons    NEL             ....   36
Dispersion correction           -0.002143025
FINAL SINGLE POINT ENERGY      -231.457907335240
Dispersion correction           -0.000267042
FINAL SINGLE POINT ENERGY      -115.730730462465

CARTESIAN COORDINATES (ANGSTROEM)
---------------------------------
  C     -4.592135   -8.778354   -4.672863
  O     -4.996036   -7.685713   -3.782804
  H     -4.696775   -7.821721   -2.928204
  H     -3.534098   -9.010149   -4.638917
  H     -5.112055   -9.688766   -4.343416
  H     -4.938609   -8.647915   -5.698391
  C     -8.445493   -8.970130   -4.854206
  O     -8.017802   -7.780102   -4.192858
  H     -7.371794   -8.082310   -3.518202
  H     -7.667037   -9.755791   -4.931403
  H     -9.267876   -9.327560   -4.164710
  H     -8.935685   -8.943218   -5.800736

 Multiplicity           Mult            ....    1
 Number of Electrons    NEL             ....   18
 Basis Dimension        Dim             ....  172

ORBITAL ENERGIES
----------------

  NO   OCC          E(Eh)            E(eV)
   0   2.0000     -19.235115      -523.4141
   1   2.0000     -10.317486      -280.7531
   2   2.0000      -1.131846       -30.7991
   3   2.0000      -0.793748       -21.5990
   4   2.0000      -0.605487       -16.4761
   5   2.0000      -0.537983       -14.6393
   6   2.0000      -0.532411       -14.4876
   7   2.0000      -0.435744       -11.8572
   8   2.0000      -0.367628       -10.0037
   9   0.0000       0.072196         1.9646
  10   0.0000       0.135689         3.6923
  11   0.0000       0.138848         3.7783
  12   0.0000       0.170867         4.6495
  13   0.0000       0.180079         4.9002

MULLIKEN ATOMIC CHARGES
-----------------------
   0 C :   -0.008263
   1 O :   -0.001304
   2 H :   -0.000076
   3 H :   -0.000244
   4 H :    0.000363
   5 H :    0.001148
   6 C :   -0.199566
   7 O :   -0.463888
   8 H :    0.323124
   9 H :    0.108213
  10 H :    0.110845
  11 H :    0.129649
Sum of atomic charges:    0.0000000

LOEWDIN ATOMIC CHARGES
----------------------
   0 C :   -0.006881
   1 O :   -0.008304
   2 H :   -0.000989
   3 H :   -0.000124
   4 H :   -0.001852
   5 H :   -0.000672
   6 C :   -0.386209
   7 O :   -0.087678
   8 H :    0.187170
   9 H :    0.099018
  10 H :    0.106168
  11 H :    0.100354

  Mayer bond orders larger than 0.1
B(  6-C ,  7-O ) :   0.9878 B(  6-C ,  9-H ) :   0.9712 B(  6-C , 10-H ) :   0.9954
B(  6-C , 11-H ) :   0.9672 B(  7-O ,  8-H ) :   0.8936

Dispersion correction           -0.000243911
FINAL SINGLE POINT ENERGY      -115.725544167070

DIPOLE MOMENT
-------------
                                X             Y             Z
Electronic contribution:      0.56994       1.75560       0.54783
Nuclear contribution   :     -0.35596      -2.40821      -0.41321
                        -----------------------------------------
Total Dipole Moment    :      0.21398      -0.65261       0.13462
                        -----------------------------------------
Magnitude (a.u.)       :      0.69987
Magnitude (Debye)      :      1.77892

Rotational constants in cm-1:     4.309664     0.812741     0.784176
Rotational constants in MHz : 129200.491099 24365.375399 23509.003510

                             ****ORCA TERMINATED NORMALLY****
TOTAL RUN TIME: 0 days 0 hours 1 minutes 5 seconds 246 msec
