                         Program Version 4.1.2  - RELEASE  -
|  1> #Run DFT-D3 single point of the dimer
|  2> ! wB97X-D3 def2-TZVP TIGHTSCF CHELPG PMODEL PAL8
|  3>
|  4> %base "10-62_DFT_AB"
|  5>
|  6> %scf
|  7> MaxIter 1000
|  8> end
|  9>
| 10> * xyz 0 1
| 11>   C                      6.480167             4.850157             8.017725
| 12>   O                      6.846940             3.890680             7.044795
| 13>   H                      7.195709             4.304133             6.297054
| 14>   H                      7.306813             5.169564             8.669647
| 15>   H                      6.202793             5.826223             7.485602
| 16>   H                      5.554086             4.491351             8.572135
| 17>   C                      6.549709             0.162211             7.971278
| 18>   O                      7.207130             0.149627             9.249708
| 19>   H                      7.873903             0.795212             9.294511
| 20>   H                      6.507678             1.219437             7.560693
| 21>   H                      7.066095             -0.530494            7.333043
| 22>   H                      5.469462             -0.156520            7.980688
| 23> *
| 24>
| 25> #Run DFT-D3 single point of the molecule with dimer basis set
| 26> $new_job
| 27> %base "10-62_DFT_A"
| 28> ! wB97X-D3 def2-TZVP TIGHTSCF CHELPG PMODEL
| 29>
| 30> %scf
| 31> MaxIter 1000
| 32> end
| 33>
| 34> * xyz 0 1
| 35>   C                      6.480167             4.850157             8.017725
| 36>   O                      6.846940             3.890680             7.044795
| 37>   H                      7.195709             4.304133             6.297054
| 38>   H                      7.306813             5.169564             8.669647
| 39>   H                      6.202793             5.826223             7.485602
| 40>   H                      5.554086             4.491351             8.572135
| 41>   C                    : 6.549709             0.162211             7.971278
| 42>   O                    : 7.207130             0.149627             9.249708
| 43>   H                    : 7.873903             0.795212             9.294511
| 44>   H                    : 6.507678             1.219437             7.560693
| 45>   H                    : 7.066095             -0.530494            7.333043
| 46>   H                    : 5.469462             -0.156520            7.980688
| 47> *
| 48>
| 49> #Run DFT-D3 single point of the particle with dimer basis set
| 50> $new_job
| 51> %base "10-62_DFT_B"
| 52> ! wB97X-D3 def2-TZVP TIGHTSCF CHELPG PMODEL
| 53>
| 54> %scf
| 55> MaxIter 1000
| 56> end
| 57>
| 58> * xyz 0 1
| 59>   C                    : 6.480167             4.850157             8.017725
| 60>   O                    : 6.846940             3.890680             7.044795
| 61>   H                    : 7.195709             4.304133             6.297054
| 62>   H                    : 7.306813             5.169564             8.669647
| 63>   H                    : 6.202793             5.826223             7.485602
| 64>   H                    : 5.554086             4.491351             8.572135
| 65>   C                      6.549709             0.162211             7.971278
| 66>   O                      7.207130             0.149627             9.249708
| 67>   H                      7.873903             0.795212             9.294511
| 68>   H                      6.507678             1.219437             7.560693
| 69>   H                      7.066095             -0.530494            7.333043
| 70>   H                      5.469462             -0.156520            7.980688
| 71> *
| 72>
| 73>                          ****END OF INPUT****
 Total Charge           Charge          ....    0
 Multiplicity           Mult            ....    1
 Number of Electrons    NEL             ....   36
Dispersion correction           -0.001305228
FINAL SINGLE POINT ENERGY      -231.463674305849
Dispersion correction           -0.000255562
FINAL SINGLE POINT ENERGY      -115.730682789132

CARTESIAN COORDINATES (ANGSTROEM)
---------------------------------
  C      6.480167    4.850157    8.017725
  O      6.846940    3.890680    7.044795
  H      7.195709    4.304133    6.297054
  H      7.306813    5.169564    8.669647
  H      6.202793    5.826223    7.485602
  H      5.554086    4.491351    8.572135
  C      6.549709    0.162211    7.971278
  O      7.207130    0.149627    9.249708
  H      7.873903    0.795212    9.294511
  H      6.507678    1.219437    7.560693
  H      7.066095   -0.530494    7.333043
  H      5.469462   -0.156520    7.980688

 Multiplicity           Mult            ....    1
 Number of Electrons    NEL             ....   18
 Basis Dimension        Dim             ....  172

ORBITAL ENERGIES
----------------

  NO   OCC          E(Eh)            E(eV)
   0   2.0000     -19.225054      -523.1403
   1   2.0000     -10.322077      -280.8780
   2   2.0000      -1.132820       -30.8256
   3   2.0000      -0.796889       -21.6845
   4   2.0000      -0.606712       -16.5095
   5   2.0000      -0.544632       -14.8202
   6   2.0000      -0.524517       -14.2728
   7   2.0000      -0.424015       -11.5380
   8   2.0000      -0.375567       -10.2197
   9   0.0000       0.075478         2.0539
  10   0.0000       0.123881         3.3710
  11   0.0000       0.147071         4.0020
  12   0.0000       0.162583         4.4241
  13   0.0000       0.183497         4.9932

MULLIKEN ATOMIC CHARGES
-----------------------
   0 C :    0.000403
   1 O :    0.000320
   2 H :   -0.000089
   3 H :   -0.000047
   4 H :    0.000021
   5 H :   -0.000037
   6 C :   -0.163466
   7 O :   -0.482021
   8 H :    0.313048
   9 H :    0.098946
  10 H :    0.114366
  11 H :    0.118556
Sum of atomic charges:   -0.0000000

LOEWDIN ATOMIC CHARGES
----------------------
   0 C :   -0.000707
   1 O :   -0.002975
   2 H :   -0.000273
   3 H :   -0.000017
   4 H :   -0.000009
   5 H :   -0.000094
   6 C :   -0.369269
   7 O :   -0.082886
   8 H :    0.145502
   9 H :    0.105811
  10 H :    0.092500
  11 H :    0.112417

  Mayer bond orders larger than 0.1
B(  6-C ,  7-O ) :   0.9906 B(  6-C ,  9-H ) :   0.9805 B(  6-C , 10-H ) :   0.9796
B(  6-C , 11-H ) :   0.9686 B(  7-O ,  8-H ) :   0.9036

Dispersion correction           -0.000263108
FINAL SINGLE POINT ENERGY      -115.730408297838

DIPOLE MOMENT
-------------
                                X             Y             Z
Electronic contribution:      0.79275      -0.14941       1.64805
Nuclear contribution   :     -0.63823       0.57986      -2.15339
                        -----------------------------------------
Total Dipole Moment    :      0.15452       0.43045      -0.50533
                        -----------------------------------------
Magnitude (a.u.)       :      0.68156
Magnitude (Debye)      :      1.73239

Rotational constants in cm-1:     4.308177     0.799122     0.775949
Rotational constants in MHz : 129155.900922 23957.087361 23262.364024

                             ****ORCA TERMINATED NORMALLY****
TOTAL RUN TIME: 0 days 0 hours 1 minutes 6 seconds 449 msec
