                         Program Version 4.1.2  - RELEASE  -
|  1> #Run DFT-D3 single point of the dimer
|  2> ! wB97X-D3 def2-TZVP TIGHTSCF CHELPG PMODEL PAL8
|  3>
|  4> %base "6-108_DFT_AB"
|  5>
|  6> %scf
|  7> MaxIter 1000
|  8> end
|  9>
| 10> * xyz 0 1
| 11>   C                      3.504074             3.083173             -2.831861
| 12>   O                      3.784711             1.868062             -3.447040
| 13>   H                      3.080860             1.253483             -3.553574
| 14>   H                      3.183347             3.778387             -3.555988
| 15>   H                      2.754322             2.961550             -2.060546
| 16>   H                      4.439116             3.440261             -2.383345
| 17>   C                      0.182084             4.325668             -3.033749
| 18>   O                      0.829074             4.609994             -4.208649
| 19>   H                      0.237808             4.171818             -4.852267
| 20>   H                      0.642649             4.858866             -2.199980
| 21>   H                      -0.820564            4.802112             -2.973420
| 22>   H                      0.162059             3.239684             -2.768472
| 23> *
| 24>
| 25> #Run DFT-D3 single point of the molecule with dimer basis set
| 26> $new_job
| 27> %base "6-108_DFT_A"
| 28> ! wB97X-D3 def2-TZVP TIGHTSCF CHELPG PMODEL
| 29>
| 30> %scf
| 31> MaxIter 1000
| 32> end
| 33>
| 34> * xyz 0 1
| 35>   C                      3.504074             3.083173             -2.831861
| 36>   O                      3.784711             1.868062             -3.447040
| 37>   H                      3.080860             1.253483             -3.553574
| 38>   H                      3.183347             3.778387             -3.555988
| 39>   H                      2.754322             2.961550             -2.060546
| 40>   H                      4.439116             3.440261             -2.383345
| 41>   C                    : 0.182084             4.325668             -3.033749
| 42>   O                    : 0.829074             4.609994             -4.208649
| 43>   H                    : 0.237808             4.171818             -4.852267
| 44>   H                    : 0.642649             4.858866             -2.199980
| 45>   H                    : -0.820564            4.802112             -2.973420
| 46>   H                    : 0.162059             3.239684             -2.768472
| 47> *
| 48>
| 49> #Run DFT-D3 single point of the particle with dimer basis set
| 50> $new_job
| 51> %base "6-108_DFT_B"
| 52> ! wB97X-D3 def2-TZVP TIGHTSCF CHELPG PMODEL
| 53>
| 54> %scf
| 55> MaxIter 1000
| 56> end
| 57>
| 58> * xyz 0 1
| 59>   C                    : 3.504074             3.083173             -2.831861
| 60>   O                    : 3.784711             1.868062             -3.447040
| 61>   H                    : 3.080860             1.253483             -3.553574
| 62>   H                    : 3.183347             3.778387             -3.555988
| 63>   H                    : 2.754322             2.961550             -2.060546
| 64>   H                    : 4.439116             3.440261             -2.383345
| 65>   C                      0.182084             4.325668             -3.033749
| 66>   O                      0.829074             4.609994             -4.208649
| 67>   H                      0.237808             4.171818             -4.852267
| 68>   H                      0.642649             4.858866             -2.199980
| 69>   H                      -0.820564            4.802112             -2.973420
| 70>   H                      0.162059             3.239684             -2.768472
| 71> *
| 72>
| 73>                          ****END OF INPUT****
 Total Charge           Charge          ....    0
 Multiplicity           Mult            ....    1
 Number of Electrons    NEL             ....   36
Dispersion correction           -0.002021355
FINAL SINGLE POINT ENERGY      -231.465241052468
Dispersion correction           -0.000235868
FINAL SINGLE POINT ENERGY      -115.733064864350

CARTESIAN COORDINATES (ANGSTROEM)
---------------------------------
  C      3.504074    3.083173   -2.831861
  O      3.784711    1.868062   -3.447040
  H      3.080860    1.253483   -3.553574
  H      3.183347    3.778387   -3.555988
  H      2.754322    2.961550   -2.060546
  H      4.439116    3.440261   -2.383345
  C      0.182084    4.325668   -3.033749
  O      0.829074    4.609994   -4.208649
  H      0.237808    4.171818   -4.852267
  H      0.642649    4.858866   -2.199980
  H     -0.820564    4.802112   -2.973420
  H      0.162059    3.239684   -2.768472

 Multiplicity           Mult            ....    1
 Number of Electrons    NEL             ....   18
 Basis Dimension        Dim             ....  172

ORBITAL ENERGIES
----------------

  NO   OCC          E(Eh)            E(eV)
   0   2.0000     -19.237704      -523.4845
   1   2.0000     -10.312577      -280.6195
   2   2.0000      -1.154444       -31.4140
   3   2.0000      -0.788064       -21.4443
   4   2.0000      -0.613379       -16.6909
   5   2.0000      -0.552793       -15.0423
   6   2.0000      -0.531345       -14.4586
   7   2.0000      -0.428759       -11.6671
   8   2.0000      -0.375799       -10.2260
   9   0.0000       0.091359         2.4860
  10   0.0000       0.125171         3.4061
  11   0.0000       0.152738         4.1562
  12   0.0000       0.164480         4.4757
  13   0.0000       0.198200         5.3933

MULLIKEN ATOMIC CHARGES
-----------------------
   0 C :    0.004502
   1 O :   -0.000213
   2 H :   -0.000248
   3 H :   -0.005570
   4 H :   -0.002030
   5 H :    0.000160
   6 C :   -0.183639
   7 O :   -0.447569
   8 H :    0.318130
   9 H :    0.111089
  10 H :    0.102869
  11 H :    0.102519
Sum of atomic charges:   -0.0000000

LOEWDIN ATOMIC CHARGES
----------------------
   0 C :   -0.007807
   1 O :   -0.000037
   2 H :   -0.000085
   3 H :   -0.009462
   4 H :   -0.002503
   5 H :   -0.000038
   6 C :   -0.438893
   7 O :   -0.035924
   8 H :    0.189372
   9 H :    0.108238
  10 H :    0.098232
  11 H :    0.098908

  Mayer bond orders larger than 0.1
B(  6-C ,  7-O ) :   1.0033 B(  6-C ,  9-H ) :   0.9763 B(  6-C , 10-H ) :   0.9693
B(  6-C , 11-H ) :   0.9746 B(  7-O ,  8-H ) :   0.8966

Dispersion correction           -0.000222196
FINAL SINGLE POINT ENERGY      -115.731101799063

DIPOLE MOMENT
-------------
                                X             Y             Z
Electronic contribution:      1.03846       0.38643      -1.61893
Nuclear contribution   :     -1.62258      -0.71934       1.65253
                        -----------------------------------------
Total Dipole Moment    :     -0.58412      -0.33290       0.03359
                        -----------------------------------------
Magnitude (a.u.)       :      0.67317
Magnitude (Debye)      :      1.71105

Rotational constants in cm-1:     4.206225     0.867131     0.843375
Rotational constants in MHz : 126099.440956 25995.932467 25283.749646

                             ****ORCA TERMINATED NORMALLY****
TOTAL RUN TIME: 0 days 0 hours 1 minutes 5 seconds 370 msec
