                         Program Version 4.1.2  - RELEASE  -
|  1> #Run DFT-D3 single point of the dimer
|  2> ! wB97X-D3 def2-TZVP TIGHTSCF CHELPG PMODEL PAL8
|  3>
|  4> %base "19-183_DFT_AB"
|  5>
|  6> %scf
|  7> MaxIter 1000
|  8> end
|  9>
| 10> * xyz 0 1
| 11>   C                      5.601645             2.865781             -2.937412
| 12>   O                      6.469794             3.049377             -4.069682
| 13>   H                      7.333711             3.399525             -3.798781
| 14>   H                      5.628178             3.723211             -2.224318
| 15>   H                      4.562722             2.880509             -3.237617
| 16>   H                      5.848391             1.946578             -2.433106
| 17>   C                      7.981219             -0.291185            -2.307794
| 18>   O                      8.609789             0.943120             -2.501498
| 19>   H                      8.222693             1.377620             -3.223846
| 20>   H                      8.613128             -1.115822            -1.832111
| 21>   H                      6.993007             -0.231552            -1.896595
| 22>   H                      7.663907             -0.814704            -3.238859
| 23> *
| 24>
| 25> #Run DFT-D3 single point of the molecule with dimer basis set
| 26> $new_job
| 27> %base "19-183_DFT_A"
| 28> ! wB97X-D3 def2-TZVP TIGHTSCF CHELPG PMODEL
| 29>
| 30> %scf
| 31> MaxIter 1000
| 32> end
| 33>
| 34> * xyz 0 1
| 35>   C                      5.601645             2.865781             -2.937412
| 36>   O                      6.469794             3.049377             -4.069682
| 37>   H                      7.333711             3.399525             -3.798781
| 38>   H                      5.628178             3.723211             -2.224318
| 39>   H                      4.562722             2.880509             -3.237617
| 40>   H                      5.848391             1.946578             -2.433106
| 41>   C                    : 7.981219             -0.291185            -2.307794
| 42>   O                    : 8.609789             0.943120             -2.501498
| 43>   H                    : 8.222693             1.377620             -3.223846
| 44>   H                    : 8.613128             -1.115822            -1.832111
| 45>   H                    : 6.993007             -0.231552            -1.896595
| 46>   H                    : 7.663907             -0.814704            -3.238859
| 47> *
| 48>
| 49> #Run DFT-D3 single point of the particle with dimer basis set
| 50> $new_job
| 51> %base "19-183_DFT_B"
| 52> ! wB97X-D3 def2-TZVP TIGHTSCF CHELPG PMODEL
| 53>
| 54> %scf
| 55> MaxIter 1000
| 56> end
| 57>
| 58> * xyz 0 1
| 59>   C                    : 5.601645             2.865781             -2.937412
| 60>   O                    : 6.469794             3.049377             -4.069682
| 61>   H                    : 7.333711             3.399525             -3.798781
| 62>   H                    : 5.628178             3.723211             -2.224318
| 63>   H                    : 4.562722             2.880509             -3.237617
| 64>   H                    : 5.848391             1.946578             -2.433106
| 65>   C                      7.981219             -0.291185            -2.307794
| 66>   O                      8.609789             0.943120             -2.501498
| 67>   H                      8.222693             1.377620             -3.223846
| 68>   H                      8.613128             -1.115822            -1.832111
| 69>   H                      6.993007             -0.231552            -1.896595
| 70>   H                      7.663907             -0.814704            -3.238859
| 71> *
| 72>
| 73>                          ****END OF INPUT****
 Total Charge           Charge          ....    0
 Multiplicity           Mult            ....    1
 Number of Electrons    NEL             ....   36
Dispersion correction           -0.002071730
FINAL SINGLE POINT ENERGY      -231.463896651206
Dispersion correction           -0.000263335
FINAL SINGLE POINT ENERGY      -115.734699835335

CARTESIAN COORDINATES (ANGSTROEM)
---------------------------------
  C      5.601645    2.865781   -2.937412
  O      6.469794    3.049377   -4.069682
  H      7.333711    3.399525   -3.798781
  H      5.628178    3.723211   -2.224318
  H      4.562722    2.880509   -3.237617
  H      5.848391    1.946578   -2.433106
  C      7.981219   -0.291185   -2.307794
  O      8.609789    0.943120   -2.501498
  H      8.222693    1.377620   -3.223846
  H      8.613128   -1.115822   -1.832111
  H      6.993007   -0.231552   -1.896595
  H      7.663907   -0.814704   -3.238859

 Multiplicity           Mult            ....    1
 Number of Electrons    NEL             ....   18
 Basis Dimension        Dim             ....  172

ORBITAL ENERGIES
----------------

  NO   OCC          E(Eh)            E(eV)
   0   2.0000     -19.234040      -523.3848
   1   2.0000     -10.318010      -280.7673
   2   2.0000      -1.150304       -31.3014
   3   2.0000      -0.799857       -21.7652
   4   2.0000      -0.629206       -17.1216
   5   2.0000      -0.542575       -14.7642
   6   2.0000      -0.520082       -14.1522
   7   2.0000      -0.431868       -11.7517
   8   2.0000      -0.374708       -10.1963
   9   0.0000       0.077728         2.1151
  10   0.0000       0.134454         3.6587
  11   0.0000       0.138058         3.7567
  12   0.0000       0.181436         4.9371
  13   0.0000       0.193041         5.2529

MULLIKEN ATOMIC CHARGES
-----------------------
   0 C :   -0.004276
   1 O :   -0.000323
   2 H :   -0.000615
   3 H :    0.000248
   4 H :   -0.000177
   5 H :    0.000295
   6 C :   -0.185581
   7 O :   -0.456494
   8 H :    0.314038
   9 H :    0.130935
  10 H :    0.104632
  11 H :    0.097318
Sum of atomic charges:    0.0000000

LOEWDIN ATOMIC CHARGES
----------------------
   0 C :   -0.005492
   1 O :   -0.002914
   2 H :   -0.002755
   3 H :   -0.000078
   4 H :   -0.000096
   5 H :   -0.003595
   6 C :   -0.410995
   7 O :   -0.035190
   8 H :    0.152757
   9 H :    0.120093
  10 H :    0.090364
  11 H :    0.097900

  Mayer bond orders larger than 0.1
B(  6-C ,  7-O ) :   1.0050 B(  6-C ,  9-H ) :   0.9724 B(  6-C , 10-H ) :   0.9686
B(  6-C , 11-H ) :   0.9813 B(  7-O ,  8-H ) :   0.9043

Dispersion correction           -0.000258608
FINAL SINGLE POINT ENERGY      -115.725760871027

DIPOLE MOMENT
-------------
                                X             Y             Z
Electronic contribution:      1.02353       1.78677      -0.00705
Nuclear contribution   :     -1.52735      -1.99197      -0.42554
                        -----------------------------------------
Total Dipole Moment    :     -0.50382      -0.20520      -0.43259
                        -----------------------------------------
Magnitude (a.u.)       :      0.69504
Magnitude (Debye)      :      1.76664

Rotational constants in cm-1:     4.511922     0.828599     0.792118
Rotational constants in MHz : 135264.005467 24840.764644 23747.106134

                             ****ORCA TERMINATED NORMALLY****
TOTAL RUN TIME: 0 days 0 hours 1 minutes 36 seconds 268 msec
