                         Program Version 4.1.2  - RELEASE  -
|  1> #Run DFT-D3 single point of the dimer
|  2> ! wB97X-D3 def2-TZVP TIGHTSCF CHELPG PMODEL PAL8
|  3>
|  4> %base "16-190_DFT_AB"
|  5>
|  6> %scf
|  7> MaxIter 1000
|  8> end
|  9>
| 10> * xyz 0 1
| 11>   C                      -4.355825            3.684646             -0.788535
| 12>   O                      -3.446795            3.823115             0.278876
| 13>   H                      -2.672503            4.139131             -0.019758
| 14>   H                      -4.056790            2.832902             -1.405011
| 15>   H                      -5.318373            3.372870             -0.422924
| 16>   H                      -4.425202            4.594607             -1.357747
| 17>   C                      -2.267208            6.279106             2.973919
| 18>   O                      -3.400082            5.746120             2.323222
| 19>   H                      -3.074221            5.322488             1.486952
| 20>   H                      -1.617773            5.410425             3.049809
| 21>   H                      -1.855328            7.068574             2.415175
| 22>   H                      -2.500357            6.573701             4.022513
| 23> *
| 24>
| 25> #Run DFT-D3 single point of the molecule with dimer basis set
| 26> $new_job
| 27> %base "16-190_DFT_A"
| 28> ! wB97X-D3 def2-TZVP TIGHTSCF CHELPG PMODEL
| 29>
| 30> %scf
| 31> MaxIter 1000
| 32> end
| 33>
| 34> * xyz 0 1
| 35>   C                      -4.355825            3.684646             -0.788535
| 36>   O                      -3.446795            3.823115             0.278876
| 37>   H                      -2.672503            4.139131             -0.019758
| 38>   H                      -4.056790            2.832902             -1.405011
| 39>   H                      -5.318373            3.372870             -0.422924
| 40>   H                      -4.425202            4.594607             -1.357747
| 41>   C                    : -2.267208            6.279106             2.973919
| 42>   O                    : -3.400082            5.746120             2.323222
| 43>   H                    : -3.074221            5.322488             1.486952
| 44>   H                    : -1.617773            5.410425             3.049809
| 45>   H                    : -1.855328            7.068574             2.415175
| 46>   H                    : -2.500357            6.573701             4.022513
| 47> *
| 48>
| 49> #Run DFT-D3 single point of the particle with dimer basis set
| 50> $new_job
| 51> %base "16-190_DFT_B"
| 52> ! wB97X-D3 def2-TZVP TIGHTSCF CHELPG PMODEL
| 53>
| 54> %scf
| 55> MaxIter 1000
| 56> end
| 57>
| 58> * xyz 0 1
| 59>   C                    : -4.355825            3.684646             -0.788535
| 60>   O                    : -3.446795            3.823115             0.278876
| 61>   H                    : -2.672503            4.139131             -0.019758
| 62>   H                    : -4.056790            2.832902             -1.405011
| 63>   H                    : -5.318373            3.372870             -0.422924
| 64>   H                    : -4.425202            4.594607             -1.357747
| 65>   C                      -2.267208            6.279106             2.973919
| 66>   O                      -3.400082            5.746120             2.323222
| 67>   H                      -3.074221            5.322488             1.486952
| 68>   H                      -1.617773            5.410425             3.049809
| 69>   H                      -1.855328            7.068574             2.415175
| 70>   H                      -2.500357            6.573701             4.022513
| 71> *
| 72>
| 73>                          ****END OF INPUT****
 Total Charge           Charge          ....    0
 Multiplicity           Mult            ....    1
 Number of Electrons    NEL             ....   36
Dispersion correction           -0.001472039
FINAL SINGLE POINT ENERGY      -231.460572842970
Dispersion correction           -0.000223615
FINAL SINGLE POINT ENERGY      -115.730521404271

CARTESIAN COORDINATES (ANGSTROEM)
---------------------------------
  C     -4.355825    3.684646   -0.788535
  O     -3.446795    3.823115    0.278876
  H     -2.672503    4.139131   -0.019758
  H     -4.056790    2.832902   -1.405011
  H     -5.318373    3.372870   -0.422924
  H     -4.425202    4.594607   -1.357747
  C     -2.267208    6.279106    2.973919
  O     -3.400082    5.746120    2.323222
  H     -3.074221    5.322488    1.486952
  H     -1.617773    5.410425    3.049809
  H     -1.855328    7.068574    2.415175
  H     -2.500357    6.573701    4.022513

 Multiplicity           Mult            ....    1
 Number of Electrons    NEL             ....   18
 Basis Dimension        Dim             ....  172

ORBITAL ENERGIES
----------------

  NO   OCC          E(Eh)            E(eV)
   0   2.0000     -19.227932      -523.2186
   1   2.0000     -10.309169      -280.5267
   2   2.0000      -1.130788       -30.7703
   3   2.0000      -0.791428       -21.5359
   4   2.0000      -0.602815       -16.4034
   5   2.0000      -0.556597       -15.1458
   6   2.0000      -0.527019       -14.3409
   7   2.0000      -0.426325       -11.6009
   8   2.0000      -0.370358       -10.0780
   9   0.0000       0.073056         1.9879
  10   0.0000       0.124261         3.3813
  11   0.0000       0.157043         4.2734
  12   0.0000       0.181533         4.9398
  13   0.0000       0.192589         5.2406

MULLIKEN ATOMIC CHARGES
-----------------------
   0 C :   -0.000303
   1 O :   -0.002242
   2 H :   -0.001744
   3 H :    0.000036
   4 H :   -0.000009
   5 H :   -0.000294
   6 C :   -0.158996
   7 O :   -0.476925
   8 H :    0.314690
   9 H :    0.102972
  10 H :    0.108026
  11 H :    0.114790
Sum of atomic charges:    0.0000000

LOEWDIN ATOMIC CHARGES
----------------------
   0 C :   -0.002126
   1 O :   -0.019946
   2 H :   -0.006078
   3 H :   -0.000035
   4 H :   -0.000069
   5 H :   -0.000163
   6 C :   -0.381661
   7 O :   -0.085165
   8 H :    0.199190
   9 H :    0.097687
  10 H :    0.085516
  11 H :    0.112850

  Mayer bond orders larger than 0.1
B(  6-C ,  7-O ) :   0.9867 B(  6-C ,  9-H ) :   0.9942 B(  6-C , 10-H ) :   0.9759
B(  6-C , 11-H ) :   0.9692 B(  7-O ,  8-H ) :   0.8962

Dispersion correction           -0.000208456
FINAL SINGLE POINT ENERGY      -115.730285292123

DIPOLE MOMENT
-------------
                                X             Y             Z
Electronic contribution:     -1.47335      -0.43420      -0.69843
Nuclear contribution   :      2.13170       0.38719       0.45935
                        -----------------------------------------
Total Dipole Moment    :      0.65835      -0.04701      -0.23907
                        -----------------------------------------
Magnitude (a.u.)       :      0.70199
Magnitude (Debye)      :      1.78433

Rotational constants in cm-1:     4.206711     0.846573     0.815925
Rotational constants in MHz : 126114.015221 25379.610499 24460.805760

                             ****ORCA TERMINATED NORMALLY****
TOTAL RUN TIME: 0 days 0 hours 1 minutes 4 seconds 11 msec
