                         Program Version 4.1.2  - RELEASE  -
|  1> #Run DFT-D3 single point of the dimer
|  2> ! wB97X-D3 def2-TZVP TIGHTSCF CHELPG PMODEL PAL8
|  3>
|  4> %base "15-118_DFT_AB"
|  5>
|  6> %scf
|  7> MaxIter 1000
|  8> end
|  9>
| 10> * xyz 0 1
| 11>   C                      -8.741298            2.011350             -3.240860
| 12>   O                      -9.621524            0.943779             -3.563059
| 13>   H                      -9.309505            0.156833             -3.162644
| 14>   H                      -9.085731            2.993607             -3.654103
| 15>   H                      -8.600028            2.141304             -2.154189
| 16>   H                      -7.868140            1.741703             -3.848083
| 17>   C                      -8.482336            3.409481             0.379262
| 18>   O                      -7.450749            2.393188             0.474597
| 19>   H                      -6.656089            2.897853             0.263945
| 20>   H                      -9.010186            3.507368             -0.567362
| 21>   H                      -9.215828            3.232609             1.167899
| 22>   H                      -8.031442            4.337339             0.588164
| 23> *
| 24>
| 25> #Run DFT-D3 single point of the molecule with dimer basis set
| 26> $new_job
| 27> %base "15-118_DFT_A"
| 28> ! wB97X-D3 def2-TZVP TIGHTSCF CHELPG PMODEL
| 29>
| 30> %scf
| 31> MaxIter 1000
| 32> end
| 33>
| 34> * xyz 0 1
| 35>   C                      -8.741298            2.011350             -3.240860
| 36>   O                      -9.621524            0.943779             -3.563059
| 37>   H                      -9.309505            0.156833             -3.162644
| 38>   H                      -9.085731            2.993607             -3.654103
| 39>   H                      -8.600028            2.141304             -2.154189
| 40>   H                      -7.868140            1.741703             -3.848083
| 41>   C                    : -8.482336            3.409481             0.379262
| 42>   O                    : -7.450749            2.393188             0.474597
| 43>   H                    : -6.656089            2.897853             0.263945
| 44>   H                    : -9.010186            3.507368             -0.567362
| 45>   H                    : -9.215828            3.232609             1.167899
| 46>   H                    : -8.031442            4.337339             0.588164
| 47> *
| 48>
| 49> #Run DFT-D3 single point of the particle with dimer basis set
| 50> $new_job
| 51> %base "15-118_DFT_B"
| 52> ! wB97X-D3 def2-TZVP TIGHTSCF CHELPG PMODEL
| 53>
| 54> %scf
| 55> MaxIter 1000
| 56> end
| 57>
| 58> * xyz 0 1
| 59>   C                    : -8.741298            2.011350             -3.240860
| 60>   O                    : -9.621524            0.943779             -3.563059
| 61>   H                    : -9.309505            0.156833             -3.162644
| 62>   H                    : -9.085731            2.993607             -3.654103
| 63>   H                    : -8.600028            2.141304             -2.154189
| 64>   H                    : -7.868140            1.741703             -3.848083
| 65>   C                      -8.482336            3.409481             0.379262
| 66>   O                      -7.450749            2.393188             0.474597
| 67>   H                      -6.656089            2.897853             0.263945
| 68>   H                      -9.010186            3.507368             -0.567362
| 69>   H                      -9.215828            3.232609             1.167899
| 70>   H                      -8.031442            4.337339             0.588164
| 71> *
| 72>
| 73>                          ****END OF INPUT****
 Total Charge           Charge          ....    0
 Multiplicity           Mult            ....    1
 Number of Electrons    NEL             ....   36
Dispersion correction           -0.001532959
FINAL SINGLE POINT ENERGY      -231.462836374642
Dispersion correction           -0.000231632
FINAL SINGLE POINT ENERGY      -115.729723763225

CARTESIAN COORDINATES (ANGSTROEM)
---------------------------------
  C     -8.741298    2.011350   -3.240860
  O     -9.621524    0.943779   -3.563059
  H     -9.309505    0.156833   -3.162644
  H     -9.085731    2.993607   -3.654103
  H     -8.600028    2.141304   -2.154189
  H     -7.868140    1.741703   -3.848083
  C     -8.482336    3.409481    0.379262
  O     -7.450749    2.393188    0.474597
  H     -6.656089    2.897853    0.263945
  H     -9.010186    3.507368   -0.567362
  H     -9.215828    3.232609    1.167899
  H     -8.031442    4.337339    0.588164

 Multiplicity           Mult            ....    1
 Number of Electrons    NEL             ....   18
 Basis Dimension        Dim             ....  172

ORBITAL ENERGIES
----------------

  NO   OCC          E(Eh)            E(eV)
   0   2.0000     -19.233139      -523.3603
   1   2.0000     -10.310722      -280.5690
   2   2.0000      -1.129055       -30.7231
   3   2.0000      -0.798828       -21.7372
   4   2.0000      -0.606976       -16.5166
   5   2.0000      -0.540869       -14.7178
   6   2.0000      -0.522823       -14.2267
   7   2.0000      -0.442361       -12.0373
   8   2.0000      -0.377729       -10.2785
   9   0.0000       0.090188         2.4542
  10   0.0000       0.118458         3.2234
  11   0.0000       0.149577         4.0702
  12   0.0000       0.170558         4.6411
  13   0.0000       0.196278         5.3410

MULLIKEN ATOMIC CHARGES
-----------------------
   0 C :   -0.004301
   1 O :    0.000049
   2 H :   -0.000025
   3 H :   -0.000178
   4 H :    0.006356
   5 H :    0.000139
   6 C :   -0.184663
   7 O :   -0.469076
   8 H :    0.314149
   9 H :    0.105813
  10 H :    0.121660
  11 H :    0.110077
Sum of atomic charges:   -0.0000000

LOEWDIN ATOMIC CHARGES
----------------------
   0 C :   -0.004735
   1 O :   -0.000018
   2 H :   -0.000010
   3 H :   -0.000298
   4 H :   -0.007448
   5 H :   -0.000025
   6 C :   -0.353655
   7 O :   -0.099527
   8 H :    0.171747
   9 H :    0.098386
  10 H :    0.106467
  11 H :    0.089116

  Mayer bond orders larger than 0.1
B(  6-C ,  7-O ) :   1.0028 B(  6-C ,  9-H ) :   0.9671 B(  6-C , 10-H ) :   0.9802
B(  6-C , 11-H ) :   0.9917 B(  7-O ,  8-H ) :   0.9049

Dispersion correction           -0.000245112
FINAL SINGLE POINT ENERGY      -115.731915439573

DIPOLE MOMENT
-------------
                                X             Y             Z
Electronic contribution:      1.18228      -1.42240       0.08377
Nuclear contribution   :     -1.09272       2.17321      -0.23072
                        -----------------------------------------
Total Dipole Moment    :      0.08956       0.75081      -0.14695
                        -----------------------------------------
Magnitude (a.u.)       :      0.77028
Magnitude (Debye)      :      1.95789

Rotational constants in cm-1:     4.373478     0.803790     0.775586
Rotational constants in MHz : 131113.575643 24097.014757 23251.483737

                             ****ORCA TERMINATED NORMALLY****
TOTAL RUN TIME: 0 days 0 hours 0 minutes 58 seconds 925 msec
