                         Program Version 4.1.2  - RELEASE  -
|  1> #Run DFT-D3 single point of the dimer
|  2> ! wB97X-D3 def2-TZVP TIGHTSCF CHELPG PMODEL PAL8
|  3>
|  4> %base "4-66_DFT_AB"
|  5>
|  6> %scf
|  7> MaxIter 1000
|  8> end
|  9>
| 10> * xyz 0 1
| 11>   C                      3.051319             10.744531            -1.095731
| 12>   O                      4.041918             9.795528             -1.066697
| 13>   H                      3.695005             9.045905             -1.508227
| 14>   H                      2.823380             11.193484            -2.079917
| 15>   H                      2.116573             10.257582            -0.937231
| 16>   H                      3.298022             11.551580            -0.358631
| 17>   C                      1.018940             6.694985             -1.032136
| 18>   O                      2.230174             6.372593             -0.305373
| 19>   H                      2.404146             5.410996             -0.444812
| 20>   H                      0.998442             7.759421             -1.303204
| 21>   H                      1.070386             6.146931             -2.024044
| 22>   H                      0.123242             6.356830             -0.452372
| 23> *
| 24>
| 25> #Run DFT-D3 single point of the molecule with dimer basis set
| 26> $new_job
| 27> %base "4-66_DFT_A"
| 28> ! wB97X-D3 def2-TZVP TIGHTSCF CHELPG PMODEL
| 29>
| 30> %scf
| 31> MaxIter 1000
| 32> end
| 33>
| 34> * xyz 0 1
| 35>   C                      3.051319             10.744531            -1.095731
| 36>   O                      4.041918             9.795528             -1.066697
| 37>   H                      3.695005             9.045905             -1.508227
| 38>   H                      2.823380             11.193484            -2.079917
| 39>   H                      2.116573             10.257582            -0.937231
| 40>   H                      3.298022             11.551580            -0.358631
| 41>   C                    : 1.018940             6.694985             -1.032136
| 42>   O                    : 2.230174             6.372593             -0.305373
| 43>   H                    : 2.404146             5.410996             -0.444812
| 44>   H                    : 0.998442             7.759421             -1.303204
| 45>   H                    : 1.070386             6.146931             -2.024044
| 46>   H                    : 0.123242             6.356830             -0.452372
| 47> *
| 48>
| 49> #Run DFT-D3 single point of the particle with dimer basis set
| 50> $new_job
| 51> %base "4-66_DFT_B"
| 52> ! wB97X-D3 def2-TZVP TIGHTSCF CHELPG PMODEL
| 53>
| 54> %scf
| 55> MaxIter 1000
| 56> end
| 57>
| 58> * xyz 0 1
| 59>   C                    : 3.051319             10.744531            -1.095731
| 60>   O                    : 4.041918             9.795528             -1.066697
| 61>   H                    : 3.695005             9.045905             -1.508227
| 62>   H                    : 2.823380             11.193484            -2.079917
| 63>   H                    : 2.116573             10.257582            -0.937231
| 64>   H                    : 3.298022             11.551580            -0.358631
| 65>   C                      1.018940             6.694985             -1.032136
| 66>   O                      2.230174             6.372593             -0.305373
| 67>   H                      2.404146             5.410996             -0.444812
| 68>   H                      0.998442             7.759421             -1.303204
| 69>   H                      1.070386             6.146931             -2.024044
| 70>   H                      0.123242             6.356830             -0.452372
| 71> *
| 72>
| 73>                          ****END OF INPUT****
 Total Charge           Charge          ....    0
 Multiplicity           Mult            ....    1
 Number of Electrons    NEL             ....   36
Dispersion correction           -0.001415024
FINAL SINGLE POINT ENERGY      -231.463107606325
Dispersion correction           -0.000214605
FINAL SINGLE POINT ENERGY      -115.729367537958

CARTESIAN COORDINATES (ANGSTROEM)
---------------------------------
  C      3.051319   10.744531   -1.095731
  O      4.041918    9.795528   -1.066697
  H      3.695005    9.045905   -1.508227
  H      2.823380   11.193484   -2.079917
  H      2.116573   10.257582   -0.937231
  H      3.298022   11.551580   -0.358631
  C      1.018940    6.694985   -1.032136
  O      2.230174    6.372593   -0.305373
  H      2.404146    5.410996   -0.444812
  H      0.998442    7.759421   -1.303204
  H      1.070386    6.146931   -2.024044
  H      0.123242    6.356830   -0.452372

 Multiplicity           Mult            ....    1
 Number of Electrons    NEL             ....   18
 Basis Dimension        Dim             ....  172

ORBITAL ENERGIES
----------------

  NO   OCC          E(Eh)            E(eV)
   0   2.0000     -19.231078      -523.3042
   1   2.0000     -10.323818      -280.9254
   2   2.0000      -1.120842       -30.4997
   3   2.0000      -0.787773       -21.4364
   4   2.0000      -0.596541       -16.2327
   5   2.0000      -0.541739       -14.7415
   6   2.0000      -0.520719       -14.1695
   7   2.0000      -0.429926       -11.6989
   8   2.0000      -0.373452       -10.1621
   9   0.0000       0.091340         2.4855
  10   0.0000       0.113612         3.0915
  11   0.0000       0.152078         4.1383
  12   0.0000       0.178164         4.8481
  13   0.0000       0.189130         5.1465

MULLIKEN ATOMIC CHARGES
-----------------------
   0 C :   -0.000573
   1 O :    0.000097
   2 H :   -0.001941
   3 H :    0.000030
   4 H :    0.001067
   5 H :    0.000002
   6 C :   -0.176146
   7 O :   -0.481641
   8 H :    0.316405
   9 H :    0.128041
  10 H :    0.102477
  11 H :    0.112182
Sum of atomic charges:    0.0000000

LOEWDIN ATOMIC CHARGES
----------------------
   0 C :   -0.000681
   1 O :   -0.000210
   2 H :   -0.002003
   3 H :   -0.000011
   4 H :   -0.001157
   5 H :   -0.000003
   6 C :   -0.370175
   7 O :   -0.118833
   8 H :    0.181611
   9 H :    0.107880
  10 H :    0.102581
  11 H :    0.100998

  Mayer bond orders larger than 0.1
B(  6-C ,  7-O ) :   0.9936 B(  6-C ,  9-H ) :   0.9691 B(  6-C , 10-H ) :   0.9842
B(  6-C , 11-H ) :   0.9690 B(  7-O ,  8-H ) :   0.8964

Dispersion correction           -0.000253575
FINAL SINGLE POINT ENERGY      -115.732531234016

DIPOLE MOMENT
-------------
                                X             Y             Z
Electronic contribution:      1.45574      -0.15600       1.03447
Nuclear contribution   :     -1.83402      -0.30464      -1.43500
                        -----------------------------------------
Total Dipole Moment    :     -0.37827      -0.46064      -0.40053
                        -----------------------------------------
Magnitude (a.u.)       :      0.71813
Magnitude (Debye)      :      1.82534

Rotational constants in cm-1:     4.032696     0.796726     0.773604
Rotational constants in MHz : 120897.181668 23885.241770 23192.064719

                             ****ORCA TERMINATED NORMALLY****
TOTAL RUN TIME: 0 days 0 hours 1 minutes 35 seconds 885 msec
