                         Program Version 4.1.2  - RELEASE  -
|  1> #Run DFT-D3 single point of the dimer
|  2> ! wB97X-D3 def2-TZVP TIGHTSCF CHELPG PMODEL PAL8
|  3>
|  4> %base "5-18_DFT_AB"
|  5>
|  6> %scf
|  7> MaxIter 1000
|  8> end
|  9>
| 10> * xyz 0 1
| 11>   C                      4.682052             -4.285258            7.565120
| 12>   O                      4.866444             -3.775011            6.253769
| 13>   H                      4.430609             -2.921144            6.243393
| 14>   H                      4.396078             -3.482571            8.277853
| 15>   H                      3.896837             -5.017560            7.602140
| 16>   H                      5.548066             -4.676643            7.981622
| 17>   C                      4.067300             -0.064040            6.166807
| 18>   O                      3.400789             -1.333561            6.188324
| 19>   H                      2.585343             -1.204420            6.657145
| 20>   H                      5.048777             -0.105712            5.721656
| 21>   H                      3.512115             0.726795             5.619229
| 22>   H                      4.141362             0.411491             7.155482
| 23> *
| 24>
| 25> #Run DFT-D3 single point of the molecule with dimer basis set
| 26> $new_job
| 27> %base "5-18_DFT_A"
| 28> ! wB97X-D3 def2-TZVP TIGHTSCF CHELPG PMODEL
| 29>
| 30> %scf
| 31> MaxIter 1000
| 32> end
| 33>
| 34> * xyz 0 1
| 35>   C                      4.682052             -4.285258            7.565120
| 36>   O                      4.866444             -3.775011            6.253769
| 37>   H                      4.430609             -2.921144            6.243393
| 38>   H                      4.396078             -3.482571            8.277853
| 39>   H                      3.896837             -5.017560            7.602140
| 40>   H                      5.548066             -4.676643            7.981622
| 41>   C                    : 4.067300             -0.064040            6.166807
| 42>   O                    : 3.400789             -1.333561            6.188324
| 43>   H                    : 2.585343             -1.204420            6.657145
| 44>   H                    : 5.048777             -0.105712            5.721656
| 45>   H                    : 3.512115             0.726795             5.619229
| 46>   H                    : 4.141362             0.411491             7.155482
| 47> *
| 48>
| 49> #Run DFT-D3 single point of the particle with dimer basis set
| 50> $new_job
| 51> %base "5-18_DFT_B"
| 52> ! wB97X-D3 def2-TZVP TIGHTSCF CHELPG PMODEL
| 53>
| 54> %scf
| 55> MaxIter 1000
| 56> end
| 57>
| 58> * xyz 0 1
| 59>   C                    : 4.682052             -4.285258            7.565120
| 60>   O                    : 4.866444             -3.775011            6.253769
| 61>   H                    : 4.430609             -2.921144            6.243393
| 62>   H                    : 4.396078             -3.482571            8.277853
| 63>   H                    : 3.896837             -5.017560            7.602140
| 64>   H                    : 5.548066             -4.676643            7.981622
| 65>   C                      4.067300             -0.064040            6.166807
| 66>   O                      3.400789             -1.333561            6.188324
| 67>   H                      2.585343             -1.204420            6.657145
| 68>   H                      5.048777             -0.105712            5.721656
| 69>   H                      3.512115             0.726795             5.619229
| 70>   H                      4.141362             0.411491             7.155482
| 71> *
| 72>
| 73>                          ****END OF INPUT****
 Total Charge           Charge          ....    0
 Multiplicity           Mult            ....    1
 Number of Electrons    NEL             ....   36
Dispersion correction           -0.001760070
FINAL SINGLE POINT ENERGY      -231.475502594522
Dispersion correction           -0.000239376
FINAL SINGLE POINT ENERGY      -115.732794895137

CARTESIAN COORDINATES (ANGSTROEM)
---------------------------------
  C      4.682052   -4.285258    7.565120
  O      4.866444   -3.775011    6.253769
  H      4.430609   -2.921144    6.243393
  H      4.396078   -3.482571    8.277853
  H      3.896837   -5.017560    7.602140
  H      5.548066   -4.676643    7.981622
  C      4.067300   -0.064040    6.166807
  O      3.400789   -1.333561    6.188324
  H      2.585343   -1.204420    6.657145
  H      5.048777   -0.105712    5.721656
  H      3.512115    0.726795    5.619229
  H      4.141362    0.411491    7.155482

 Multiplicity           Mult            ....    1
 Number of Electrons    NEL             ....   18
 Basis Dimension        Dim             ....  172

ORBITAL ENERGIES
----------------

  NO   OCC          E(Eh)            E(eV)
   0   2.0000     -19.234801      -523.4056
   1   2.0000     -10.316601      -280.7290
   2   2.0000      -1.135643       -30.9024
   3   2.0000      -0.799112       -21.7450
   4   2.0000      -0.614310       -16.7162
   5   2.0000      -0.532288       -14.4843
   6   2.0000      -0.526646       -14.3308
   7   2.0000      -0.444402       -12.0928
   8   2.0000      -0.373992       -10.1768
   9   0.0000       0.098114         2.6698
  10   0.0000       0.126124         3.4320
  11   0.0000       0.150006         4.0819
  12   0.0000       0.185121         5.0374
  13   0.0000       0.201638         5.4869

MULLIKEN ATOMIC CHARGES
-----------------------
   0 C :    0.002676
   1 O :   -0.001296
   2 H :   -0.003995
   3 H :   -0.005941
   4 H :   -0.000294
   5 H :   -0.000431
   6 C :   -0.178116
   7 O :   -0.463802
   8 H :    0.312996
   9 H :    0.130386
  10 H :    0.102100
  11 H :    0.105718
Sum of atomic charges:    0.0000000

LOEWDIN ATOMIC CHARGES
----------------------
   0 C :   -0.004517
   1 O :   -0.005396
   2 H :   -0.044936
   3 H :   -0.002539
   4 H :   -0.000074
   5 H :   -0.000058
   6 C :   -0.373632
   7 O :   -0.033423
   8 H :    0.163180
   9 H :    0.106743
  10 H :    0.098449
  11 H :    0.096204

  Mayer bond orders larger than 0.1
B(  6-C ,  7-O ) :   0.9903 B(  6-C ,  9-H ) :   0.9760 B(  6-C , 10-H ) :   0.9696
B(  6-C , 11-H ) :   0.9737 B(  7-O ,  8-H ) :   0.8993

Dispersion correction           -0.000256935
FINAL SINGLE POINT ENERGY      -115.734256653840

DIPOLE MOMENT
-------------
                                X             Y             Z
Electronic contribution:     -0.68376      -1.82943      -0.07393
Nuclear contribution   :      0.43938       2.43851       0.35843
                        -----------------------------------------
Total Dipole Moment    :     -0.24438       0.60907       0.28450
                        -----------------------------------------
Magnitude (a.u.)       :      0.71529
Magnitude (Debye)      :      1.81811

Rotational constants in cm-1:     4.412990     0.806928     0.771939
Rotational constants in MHz : 132298.110296 24191.097636 23142.136774

                             ****ORCA TERMINATED NORMALLY****
TOTAL RUN TIME: 0 days 0 hours 0 minutes 56 seconds 360 msec
