                         Program Version 4.1.2  - RELEASE  -
|  1> #Run DFT-D3 single point of the dimer
|  2> ! wB97X-D3 def2-TZVP TIGHTSCF CHELPG PMODEL PAL8
|  3>
|  4> %base "15-30_DFT_AB"
|  5>
|  6> %scf
|  7> MaxIter 1000
|  8> end
|  9>
| 10> * xyz 0 1
| 11>   C                      4.420336             -3.631376            1.742753
| 12>   O                      3.162538             -4.207617            1.389367
| 13>   H                      2.908502             -4.657569            2.203867
| 14>   H                      4.810058             -2.966194            0.971924
| 15>   H                      4.419981             -3.156620            2.638260
| 16>   H                      5.257324             -4.385752            1.882703
| 17>   C                      6.117011             -0.537824            2.319645
| 18>   O                      6.705269             -0.410618            1.052811
| 19>   H                      7.634214             -0.345952            1.299747
| 20>   H                      6.282751             0.344865             2.953731
| 21>   H                      5.042268             -0.805252            2.201874
| 22>   H                      6.552636             -1.415495            2.782392
| 23> *
| 24>
| 25> #Run DFT-D3 single point of the molecule with dimer basis set
| 26> $new_job
| 27> %base "15-30_DFT_A"
| 28> ! wB97X-D3 def2-TZVP TIGHTSCF CHELPG PMODEL
| 29>
| 30> %scf
| 31> MaxIter 1000
| 32> end
| 33>
| 34> * xyz 0 1
| 35>   C                      4.420336             -3.631376            1.742753
| 36>   O                      3.162538             -4.207617            1.389367
| 37>   H                      2.908502             -4.657569            2.203867
| 38>   H                      4.810058             -2.966194            0.971924
| 39>   H                      4.419981             -3.156620            2.638260
| 40>   H                      5.257324             -4.385752            1.882703
| 41>   C                    : 6.117011             -0.537824            2.319645
| 42>   O                    : 6.705269             -0.410618            1.052811
| 43>   H                    : 7.634214             -0.345952            1.299747
| 44>   H                    : 6.282751             0.344865             2.953731
| 45>   H                    : 5.042268             -0.805252            2.201874
| 46>   H                    : 6.552636             -1.415495            2.782392
| 47> *
| 48>
| 49> #Run DFT-D3 single point of the particle with dimer basis set
| 50> $new_job
| 51> %base "15-30_DFT_B"
| 52> ! wB97X-D3 def2-TZVP TIGHTSCF CHELPG PMODEL
| 53>
| 54> %scf
| 55> MaxIter 1000
| 56> end
| 57>
| 58> * xyz 0 1
| 59>   C                    : 4.420336             -3.631376            1.742753
| 60>   O                    : 3.162538             -4.207617            1.389367
| 61>   H                    : 2.908502             -4.657569            2.203867
| 62>   H                    : 4.810058             -2.966194            0.971924
| 63>   H                    : 4.419981             -3.156620            2.638260
| 64>   H                    : 5.257324             -4.385752            1.882703
| 65>   C                      6.117011             -0.537824            2.319645
| 66>   O                      6.705269             -0.410618            1.052811
| 67>   H                      7.634214             -0.345952            1.299747
| 68>   H                      6.282751             0.344865             2.953731
| 69>   H                      5.042268             -0.805252            2.201874
| 70>   H                      6.552636             -1.415495            2.782392
| 71> *
| 72>
| 73>                          ****END OF INPUT****
 Total Charge           Charge          ....    0
 Multiplicity           Mult            ....    1
 Number of Electrons    NEL             ....   36
Dispersion correction           -0.001720876
FINAL SINGLE POINT ENERGY      -231.462107842184
Dispersion correction           -0.000239924
FINAL SINGLE POINT ENERGY      -115.728394181086

CARTESIAN COORDINATES (ANGSTROEM)
---------------------------------
  C      4.420336   -3.631376    1.742753
  O      3.162538   -4.207617    1.389367
  H      2.908502   -4.657569    2.203867
  H      4.810058   -2.966194    0.971924
  H      4.419981   -3.156620    2.638260
  H      5.257324   -4.385752    1.882703
  C      6.117011   -0.537824    2.319645
  O      6.705269   -0.410618    1.052811
  H      7.634214   -0.345952    1.299747
  H      6.282751    0.344865    2.953731
  H      5.042268   -0.805252    2.201874
  H      6.552636   -1.415495    2.782392

 Multiplicity           Mult            ....    1
 Number of Electrons    NEL             ....   18
 Basis Dimension        Dim             ....  172

ORBITAL ENERGIES
----------------

  NO   OCC          E(Eh)            E(eV)
   0   2.0000     -19.230938      -523.3004
   1   2.0000     -10.313295      -280.6390
   2   2.0000      -1.144655       -31.1477
   3   2.0000      -0.788742       -21.4628
   4   2.0000      -0.610990       -16.6259
   5   2.0000      -0.550014       -14.9667
   6   2.0000      -0.524027       -14.2595
   7   2.0000      -0.438009       -11.9188
   8   2.0000      -0.373006       -10.1500
   9   0.0000       0.087293         2.3754
  10   0.0000       0.117052         3.1851
  11   0.0000       0.158417         4.3107
  12   0.0000       0.175765         4.7828
  13   0.0000       0.182209         4.9582

MULLIKEN ATOMIC CHARGES
-----------------------
   0 C :    0.000233
   1 O :    0.000035
   2 H :   -0.000011
   3 H :    0.000889
   4 H :   -0.003144
   5 H :   -0.000334
   6 C :   -0.181276
   7 O :   -0.461426
   8 H :    0.313050
   9 H :    0.109388
  10 H :    0.118534
  11 H :    0.104062
Sum of atomic charges:   -0.0000000

LOEWDIN ATOMIC CHARGES
----------------------
   0 C :   -0.007745
   1 O :   -0.000019
   2 H :   -0.000004
   3 H :   -0.002644
   4 H :   -0.003606
   5 H :   -0.000148
   6 C :   -0.398244
   7 O :   -0.069718
   8 H :    0.175388
   9 H :    0.095421
  10 H :    0.116589
  11 H :    0.094729

  Mayer bond orders larger than 0.1
B(  6-C ,  7-O ) :   0.9889 B(  6-C ,  9-H ) :   0.9650 B(  6-C , 10-H ) :   0.9739
B(  6-C , 11-H ) :   0.9883 B(  7-O ,  8-H ) :   0.9030

Dispersion correction           -0.000206830
FINAL SINGLE POINT ENERGY      -115.733053414746

DIPOLE MOMENT
-------------
                                X             Y             Z
Electronic contribution:      0.59262       0.26695      -1.70516
Nuclear contribution   :     -0.24233      -0.29523       2.33091
                        -----------------------------------------
Total Dipole Moment    :      0.35029      -0.02828       0.62575
                        -----------------------------------------
Magnitude (a.u.)       :      0.71768
Magnitude (Debye)      :      1.82419

Rotational constants in cm-1:     4.146568     0.856998     0.822183
Rotational constants in MHz : 124310.976395 25692.144594 24648.428727

                             ****ORCA TERMINATED NORMALLY****
TOTAL RUN TIME: 0 days 0 hours 1 minutes 3 seconds 116 msec
