                         Program Version 4.1.2  - RELEASE  -
|  1> #Run DFT-D3 single point of the dimer
|  2> ! wB97X-D3 def2-TZVP TIGHTSCF CHELPG PMODEL PAL8
|  3>
|  4> %base "20-19_DFT_AB"
|  5>
|  6> %scf
|  7> MaxIter 1000
|  8> end
|  9>
| 10> * xyz 0 1
| 11>   C                      -3.541612            8.218738             -6.097579
| 12>   O                      -2.500026            7.841059             -5.165467
| 13>   H                      -2.808424            8.091062             -4.276652
| 14>   H                      -4.504519            8.175344             -5.636522
| 15>   H                      -3.270904            9.255707             -6.480989
| 16>   H                      -3.586497            7.616042             -6.948879
| 17>   C                      -1.844517            7.549200             -9.476446
| 18>   O                      -1.036996            7.131007             -8.381999
| 19>   H                      -0.835735            6.198937             -8.380334
| 20>   H                      -1.412930            7.143828             -10.437911
| 21>   H                      -2.886758            7.176697             -9.499812
| 22>   H                      -1.964546            8.643857             -9.423512
| 23> *
| 24>
| 25> #Run DFT-D3 single point of the molecule with dimer basis set
| 26> $new_job
| 27> %base "20-19_DFT_A"
| 28> ! wB97X-D3 def2-TZVP TIGHTSCF CHELPG PMODEL
| 29>
| 30> %scf
| 31> MaxIter 1000
| 32> end
| 33>
| 34> * xyz 0 1
| 35>   C                      -3.541612            8.218738             -6.097579
| 36>   O                      -2.500026            7.841059             -5.165467
| 37>   H                      -2.808424            8.091062             -4.276652
| 38>   H                      -4.504519            8.175344             -5.636522
| 39>   H                      -3.270904            9.255707             -6.480989
| 40>   H                      -3.586497            7.616042             -6.948879
| 41>   C                    : -1.844517            7.549200             -9.476446
| 42>   O                    : -1.036996            7.131007             -8.381999
| 43>   H                    : -0.835735            6.198937             -8.380334
| 44>   H                    : -1.412930            7.143828             -10.437911
| 45>   H                    : -2.886758            7.176697             -9.499812
| 46>   H                    : -1.964546            8.643857             -9.423512
| 47> *
| 48>
| 49> #Run DFT-D3 single point of the particle with dimer basis set
| 50> $new_job
| 51> %base "20-19_DFT_B"
| 52> ! wB97X-D3 def2-TZVP TIGHTSCF CHELPG PMODEL
| 53>
| 54> %scf
| 55> MaxIter 1000
| 56> end
| 57>
| 58> * xyz 0 1
| 59>   C                    : -3.541612            8.218738             -6.097579
| 60>   O                    : -2.500026            7.841059             -5.165467
| 61>   H                    : -2.808424            8.091062             -4.276652
| 62>   H                    : -4.504519            8.175344             -5.636522
| 63>   H                    : -3.270904            9.255707             -6.480989
| 64>   H                    : -3.586497            7.616042             -6.948879
| 65>   C                      -1.844517            7.549200             -9.476446
| 66>   O                      -1.036996            7.131007             -8.381999
| 67>   H                      -0.835735            6.198937             -8.380334
| 68>   H                      -1.412930            7.143828             -10.437911
| 69>   H                      -2.886758            7.176697             -9.499812
| 70>   H                      -1.964546            8.643857             -9.423512
| 71> *
| 72>
| 73>                          ****END OF INPUT****
 Total Charge           Charge          ....    0
 Multiplicity           Mult            ....    1
 Number of Electrons    NEL             ....   36
Dispersion correction           -0.001845143
FINAL SINGLE POINT ENERGY      -231.463188008791
Dispersion correction           -0.000249729
FINAL SINGLE POINT ENERGY      -115.730712330653

CARTESIAN COORDINATES (ANGSTROEM)
---------------------------------
  C     -3.541612    8.218738   -6.097579
  O     -2.500026    7.841059   -5.165467
  H     -2.808424    8.091062   -4.276652
  H     -4.504519    8.175344   -5.636522
  H     -3.270904    9.255707   -6.480989
  H     -3.586497    7.616042   -6.948879
  C     -1.844517    7.549200   -9.476446
  O     -1.036996    7.131007   -8.381999
  H     -0.835735    6.198937   -8.380334
  H     -1.412930    7.143828  -10.437911
  H     -2.886758    7.176697   -9.499812
  H     -1.964546    8.643857   -9.423512

 Multiplicity           Mult            ....    1
 Number of Electrons    NEL             ....   18
 Basis Dimension        Dim             ....  172

ORBITAL ENERGIES
----------------

  NO   OCC          E(Eh)            E(eV)
   0   2.0000     -19.229751      -523.2681
   1   2.0000     -10.321645      -280.8663
   2   2.0000      -1.132060       -30.8049
   3   2.0000      -0.796131       -21.6638
   4   2.0000      -0.614162       -16.7122
   5   2.0000      -0.539299       -14.6751
   6   2.0000      -0.518509       -14.1094
   7   2.0000      -0.432021       -11.7559
   8   2.0000      -0.370946       -10.0939
   9   0.0000       0.092749         2.5238
  10   0.0000       0.123309         3.3554
  11   0.0000       0.146014         3.9732
  12   0.0000       0.181756         4.9458
  13   0.0000       0.183214         4.9855

MULLIKEN ATOMIC CHARGES
-----------------------
   0 C :    0.002526
   1 O :   -0.000640
   2 H :   -0.000016
   3 H :    0.000123
   4 H :   -0.001449
   5 H :   -0.001580
   6 C :   -0.161468
   7 O :   -0.487235
   8 H :    0.315417
   9 H :    0.105147
  10 H :    0.100575
  11 H :    0.128601
Sum of atomic charges:   -0.0000000

LOEWDIN ATOMIC CHARGES
----------------------
   0 C :   -0.005910
   1 O :   -0.001161
   2 H :   -0.000053
   3 H :   -0.000061
   4 H :   -0.000399
   5 H :   -0.003458
   6 C :   -0.384046
   7 O :   -0.075686
   8 H :    0.161687
   9 H :    0.101772
  10 H :    0.094354
  11 H :    0.112961

  Mayer bond orders larger than 0.1
B(  6-C ,  7-O ) :   0.9888 B(  6-C ,  9-H ) :   0.9765 B(  6-C , 10-H ) :   0.9677
B(  6-C , 11-H ) :   0.9743 B(  7-O ,  8-H ) :   0.8956

Dispersion correction           -0.000271357
FINAL SINGLE POINT ENERGY      -115.732778059819

DIPOLE MOMENT
-------------
                                X             Y             Z
Electronic contribution:      1.07339      -0.37364       1.46679
Nuclear contribution   :     -1.27919      -0.06660      -1.90804
                        -----------------------------------------
Total Dipole Moment    :     -0.20580      -0.44023      -0.44126
                        -----------------------------------------
Magnitude (a.u.)       :      0.65641
Magnitude (Debye)      :      1.66845

Rotational constants in cm-1:     4.296772     0.814144     0.777126
Rotational constants in MHz : 128813.975890 24407.433106 23297.660258

                             ****ORCA TERMINATED NORMALLY****
TOTAL RUN TIME: 0 days 0 hours 1 minutes 6 seconds 855 msec
