                         Program Version 4.1.2  - RELEASE  -
|  1> #Run DFT-D3 single point of the dimer
|  2> ! wB97X-D3 def2-TZVP TIGHTSCF CHELPG PMODEL PAL8
|  3>
|  4> %base "22-191_DFT_AB"
|  5>
|  6> %scf
|  7> MaxIter 1000
|  8> end
|  9>
| 10> * xyz 0 1
| 11>   C                      7.207043             0.664077             8.004282
| 12>   O                      7.141393             1.470282             9.070383
| 13>   H                      7.787755             1.276709             9.773981
| 14>   H                      7.171471             -0.338470            8.367438
| 15>   H                      6.287580             0.846569             7.394637
| 16>   H                      8.115168             0.774193             7.433545
| 17>   C                      10.389736            1.753682             11.339166
| 18>   O                      9.600184             0.911588             10.526653
| 19>   H                      10.135871            0.780267             9.727008
| 20>   H                      10.511711            2.743635             11.022487
| 21>   H                      9.911797             1.755127             12.389627
| 22>   H                      11.394364            1.361460             11.405134
| 23> *
| 24>
| 25> #Run DFT-D3 single point of the molecule with dimer basis set
| 26> $new_job
| 27> %base "22-191_DFT_A"
| 28> ! wB97X-D3 def2-TZVP TIGHTSCF CHELPG PMODEL
| 29>
| 30> %scf
| 31> MaxIter 1000
| 32> end
| 33>
| 34> * xyz 0 1
| 35>   C                      7.207043             0.664077             8.004282
| 36>   O                      7.141393             1.470282             9.070383
| 37>   H                      7.787755             1.276709             9.773981
| 38>   H                      7.171471             -0.338470            8.367438
| 39>   H                      6.287580             0.846569             7.394637
| 40>   H                      8.115168             0.774193             7.433545
| 41>   C                    : 10.389736            1.753682             11.339166
| 42>   O                    : 9.600184             0.911588             10.526653
| 43>   H                    : 10.135871            0.780267             9.727008
| 44>   H                    : 10.511711            2.743635             11.022487
| 45>   H                    : 9.911797             1.755127             12.389627
| 46>   H                    : 11.394364            1.361460             11.405134
| 47> *
| 48>
| 49> #Run DFT-D3 single point of the particle with dimer basis set
| 50> $new_job
| 51> %base "22-191_DFT_B"
| 52> ! wB97X-D3 def2-TZVP TIGHTSCF CHELPG PMODEL
| 53>
| 54> %scf
| 55> MaxIter 1000
| 56> end
| 57>
| 58> * xyz 0 1
| 59>   C                    : 7.207043             0.664077             8.004282
| 60>   O                    : 7.141393             1.470282             9.070383
| 61>   H                    : 7.787755             1.276709             9.773981
| 62>   H                    : 7.171471             -0.338470            8.367438
| 63>   H                    : 6.287580             0.846569             7.394637
| 64>   H                    : 8.115168             0.774193             7.433545
| 65>   C                      10.389736            1.753682             11.339166
| 66>   O                      9.600184             0.911588             10.526653
| 67>   H                      10.135871            0.780267             9.727008
| 68>   H                      10.511711            2.743635             11.022487
| 69>   H                      9.911797             1.755127             12.389627
| 70>   H                      11.394364            1.361460             11.405134
| 71> *
| 72>
| 73>                          ****END OF INPUT****
 Total Charge           Charge          ....    0
 Multiplicity           Mult            ....    1
 Number of Electrons    NEL             ....   36
Dispersion correction           -0.001686303
FINAL SINGLE POINT ENERGY      -231.469584717337
Dispersion correction           -0.000210471
FINAL SINGLE POINT ENERGY      -115.729713828394

CARTESIAN COORDINATES (ANGSTROEM)
---------------------------------
  C      7.207043    0.664077    8.004282
  O      7.141393    1.470282    9.070383
  H      7.787755    1.276709    9.773981
  H      7.171471   -0.338470    8.367438
  H      6.287580    0.846569    7.394637
  H      8.115168    0.774193    7.433545
  C     10.389736    1.753682   11.339166
  O      9.600184    0.911588   10.526653
  H     10.135871    0.780267    9.727008
  H     10.511711    2.743635   11.022487
  H      9.911797    1.755127   12.389627
  H     11.394364    1.361460   11.405134

 Multiplicity           Mult            ....    1
 Number of Electrons    NEL             ....   18
 Basis Dimension        Dim             ....  172

ORBITAL ENERGIES
----------------

  NO   OCC          E(Eh)            E(eV)
   0   2.0000     -19.234535      -523.3983
   1   2.0000     -10.311836      -280.5993
   2   2.0000      -1.138676       -30.9850
   3   2.0000      -0.793947       -21.6044
   4   2.0000      -0.616130       -16.7658
   5   2.0000      -0.544439       -14.8149
   6   2.0000      -0.519119       -14.1260
   7   2.0000      -0.438678       -11.9370
   8   2.0000      -0.375439       -10.2162
   9   0.0000       0.091655         2.4940
  10   0.0000       0.125477         3.4144
  11   0.0000       0.154941         4.2162
  12   0.0000       0.183829         5.0022
  13   0.0000       0.198715         5.4073

MULLIKEN ATOMIC CHARGES
-----------------------
   0 C :   -0.001630
   1 O :   -0.001247
   2 H :   -0.006551
   3 H :   -0.000329
   4 H :   -0.000193
   5 H :   -0.001176
   6 C :   -0.173409
   7 O :   -0.456097
   8 H :    0.313683
   9 H :    0.108285
  10 H :    0.116109
  11 H :    0.102556
Sum of atomic charges:    0.0000000

LOEWDIN ATOMIC CHARGES
----------------------
   0 C :   -0.004206
   1 O :   -0.005681
   2 H :   -0.039086
   3 H :   -0.000336
   4 H :   -0.000067
   5 H :   -0.000747
   6 C :   -0.389576
   7 O :   -0.036770
   8 H :    0.179254
   9 H :    0.081908
  10 H :    0.121769
  11 H :    0.093537

  Mayer bond orders larger than 0.1
B(  6-C ,  7-O ) :   0.9922 B(  6-C ,  9-H ) :   0.9658 B(  6-C , 10-H ) :   0.9774
B(  6-C , 11-H ) :   0.9794 B(  7-O ,  8-H ) :   0.8972

Dispersion correction           -0.000229482
FINAL SINGLE POINT ENERGY      -115.731896227816

DIPOLE MOMENT
-------------
                                X             Y             Z
Electronic contribution:     -1.13136      -1.01824      -1.03739
Nuclear contribution   :      1.79720       1.26491       0.85056
                        -----------------------------------------
Total Dipole Moment    :      0.66584       0.24668      -0.18684
                        -----------------------------------------
Magnitude (a.u.)       :      0.73423
Magnitude (Debye)      :      1.86628

Rotational constants in cm-1:     4.255509     0.843321     0.798793
Rotational constants in MHz : 127576.942213 25282.139461 23947.223348

                             ****ORCA TERMINATED NORMALLY****
TOTAL RUN TIME: 0 days 0 hours 1 minutes 7 seconds 613 msec
