                         Program Version 4.1.2  - RELEASE  -
|  1> #Run DFT-D3 single point of the dimer
|  2> ! wB97X-D3 def2-TZVP TIGHTSCF CHELPG PMODEL PAL8
|  3>
|  4> %base "4-69_DFT_AB"
|  5>
|  6> %scf
|  7> MaxIter 1000
|  8> end
|  9>
| 10> * xyz 0 1
| 11>   C                      3.051319             10.744531            -1.095731
| 12>   O                      4.041918             9.795528             -1.066697
| 13>   H                      3.695005             9.045905             -1.508227
| 14>   H                      2.823380             11.193484            -2.079917
| 15>   H                      2.116573             10.257582            -0.937231
| 16>   H                      3.298022             11.551580            -0.358631
| 17>   C                      0.210144             10.473022            -4.524549
| 18>   O                      1.100246             10.037695            -3.547117
| 19>   H                      1.188469             9.121829             -3.507936
| 20>   H                      0.109918             11.593672            -4.581112
| 21>   H                      0.513361             10.239844            -5.452492
| 22>   H                      -0.729138            9.860360             -4.402327
| 23> *
| 24>
| 25> #Run DFT-D3 single point of the molecule with dimer basis set
| 26> $new_job
| 27> %base "4-69_DFT_A"
| 28> ! wB97X-D3 def2-TZVP TIGHTSCF CHELPG PMODEL
| 29>
| 30> %scf
| 31> MaxIter 1000
| 32> end
| 33>
| 34> * xyz 0 1
| 35>   C                      3.051319             10.744531            -1.095731
| 36>   O                      4.041918             9.795528             -1.066697
| 37>   H                      3.695005             9.045905             -1.508227
| 38>   H                      2.823380             11.193484            -2.079917
| 39>   H                      2.116573             10.257582            -0.937231
| 40>   H                      3.298022             11.551580            -0.358631
| 41>   C                    : 0.210144             10.473022            -4.524549
| 42>   O                    : 1.100246             10.037695            -3.547117
| 43>   H                    : 1.188469             9.121829             -3.507936
| 44>   H                    : 0.109918             11.593672            -4.581112
| 45>   H                    : 0.513361             10.239844            -5.452492
| 46>   H                    : -0.729138            9.860360             -4.402327
| 47> *
| 48>
| 49> #Run DFT-D3 single point of the particle with dimer basis set
| 50> $new_job
| 51> %base "4-69_DFT_B"
| 52> ! wB97X-D3 def2-TZVP TIGHTSCF CHELPG PMODEL
| 53>
| 54> %scf
| 55> MaxIter 1000
| 56> end
| 57>
| 58> * xyz 0 1
| 59>   C                    : 3.051319             10.744531            -1.095731
| 60>   O                    : 4.041918             9.795528             -1.066697
| 61>   H                    : 3.695005             9.045905             -1.508227
| 62>   H                    : 2.823380             11.193484            -2.079917
| 63>   H                    : 2.116573             10.257582            -0.937231
| 64>   H                    : 3.298022             11.551580            -0.358631
| 65>   C                      0.210144             10.473022            -4.524549
| 66>   O                      1.100246             10.037695            -3.547117
| 67>   H                      1.188469             9.121829             -3.507936
| 68>   H                      0.109918             11.593672            -4.581112
| 69>   H                      0.513361             10.239844            -5.452492
| 70>   H                      -0.729138            9.860360             -4.402327
| 71> *
| 72>
| 73>                          ****END OF INPUT****
 Total Charge           Charge          ....    0
 Multiplicity           Mult            ....    1
 Number of Electrons    NEL             ....   36
Dispersion correction           -0.001668569
FINAL SINGLE POINT ENERGY      -231.451908987865
Dispersion correction           -0.000214605
FINAL SINGLE POINT ENERGY      -115.729280068206

CARTESIAN COORDINATES (ANGSTROEM)
---------------------------------
  C      3.051319   10.744531   -1.095731
  O      4.041918    9.795528   -1.066697
  H      3.695005    9.045905   -1.508227
  H      2.823380   11.193484   -2.079917
  H      2.116573   10.257582   -0.937231
  H      3.298022   11.551580   -0.358631
  C      0.210144   10.473022   -4.524549
  O      1.100246   10.037695   -3.547117
  H      1.188469    9.121829   -3.507936
  H      0.109918   11.593672   -4.581112
  H      0.513361   10.239844   -5.452492
  H     -0.729138    9.860360   -4.402327

 Multiplicity           Mult            ....    1
 Number of Electrons    NEL             ....   18
 Basis Dimension        Dim             ....  172

ORBITAL ENERGIES
----------------

  NO   OCC          E(Eh)            E(eV)
   0   2.0000     -19.223090      -523.0869
   1   2.0000     -10.309953      -280.5481
   2   2.0000      -1.147044       -31.2127
   3   2.0000      -0.805680       -21.9237
   4   2.0000      -0.625729       -17.0269
   5   2.0000      -0.549683       -14.9576
   6   2.0000      -0.527186       -14.3455
   7   2.0000      -0.428361       -11.6563
   8   2.0000      -0.369054       -10.0425
   9   0.0000       0.097138         2.6433
  10   0.0000       0.128499         3.4966
  11   0.0000       0.153910         4.1881
  12   0.0000       0.180684         4.9167
  13   0.0000       0.197151         5.3647

MULLIKEN ATOMIC CHARGES
-----------------------
   0 C :    0.016482
   1 O :   -0.000407
   2 H :   -0.001225
   3 H :   -0.013588
   4 H :   -0.010645
   5 H :   -0.000356
   6 C :   -0.144401
   7 O :   -0.468155
   8 H :    0.308788
   9 H :    0.119100
  10 H :    0.104655
  11 H :    0.089752
Sum of atomic charges:   -0.0000000

LOEWDIN ATOMIC CHARGES
----------------------
   0 C :   -0.012196
   1 O :   -0.000046
   2 H :   -0.000471
   3 H :   -0.010801
   4 H :   -0.005312
   5 H :   -0.000078
   6 C :   -0.386856
   7 O :   -0.022391
   8 H :    0.144240
   9 H :    0.119271
  10 H :    0.071066
  11 H :    0.103575

  Mayer bond orders larger than 0.1
B(  6-C ,  7-O ) :   0.9886 B(  6-C ,  9-H ) :   0.9718 B(  6-C , 10-H ) :   0.9741
B(  6-C , 11-H ) :   0.9878 B(  7-O ,  8-H ) :   0.9015

Dispersion correction           -0.000223805
FINAL SINGLE POINT ENERGY      -115.721660058209

DIPOLE MOMENT
-------------
                                X             Y             Z
Electronic contribution:      1.19089      -0.37651       1.26683
Nuclear contribution   :     -1.46288      -0.06978      -1.69775
                        -----------------------------------------
Total Dipole Moment    :     -0.27199      -0.44629      -0.43093
                        -----------------------------------------
Magnitude (a.u.)       :      0.67738
Magnitude (Debye)      :      1.72177

Rotational constants in cm-1:     4.493546     0.859543     0.812004
Rotational constants in MHz : 134713.121093 25768.456056 24343.279543

                             ****ORCA TERMINATED NORMALLY****
TOTAL RUN TIME: 0 days 0 hours 1 minutes 37 seconds 41 msec
