                         Program Version 4.1.2  - RELEASE  -
|  1> #Run DFT-D3 single point of the dimer
|  2> ! wB97X-D3 def2-TZVP TIGHTSCF CHELPG PMODEL PAL8
|  3>
|  4> %base "2-128_DFT_AB"
|  5>
|  6> %scf
|  7> MaxIter 1000
|  8> end
|  9>
| 10> * xyz 0 1
| 11>   C                      0.388477             4.100360             7.695616
| 12>   O                      -0.947411            4.692757             7.944071
| 13>   H                      -1.091817            5.388982             7.292805
| 14>   H                      1.164795             4.910124             7.802517
| 15>   H                      0.723529             3.246645             8.329768
| 16>   H                      0.383064             3.620852             6.668489
| 17>   C                      -5.133653            6.341155             4.742406
| 18>   O                      -5.119965            5.757814             5.996789
| 19>   H                      -4.614317            6.391830             6.569836
| 20>   H                      -5.439715            7.357164             4.755278
| 21>   H                      -4.234583            6.205325             4.158552
| 22>   H                      -5.880882            5.822539             4.108501
| 23> *
| 24>
| 25> #Run DFT-D3 single point of the molecule with dimer basis set
| 26> $new_job
| 27> %base "2-128_DFT_A"
| 28> ! wB97X-D3 def2-TZVP TIGHTSCF CHELPG PMODEL
| 29>
| 30> %scf
| 31> MaxIter 1000
| 32> end
| 33>
| 34> * xyz 0 1
| 35>   C                      0.388477             4.100360             7.695616
| 36>   O                      -0.947411            4.692757             7.944071
| 37>   H                      -1.091817            5.388982             7.292805
| 38>   H                      1.164795             4.910124             7.802517
| 39>   H                      0.723529             3.246645             8.329768
| 40>   H                      0.383064             3.620852             6.668489
| 41>   C                    : -5.133653            6.341155             4.742406
| 42>   O                    : -5.119965            5.757814             5.996789
| 43>   H                    : -4.614317            6.391830             6.569836
| 44>   H                    : -5.439715            7.357164             4.755278
| 45>   H                    : -4.234583            6.205325             4.158552
| 46>   H                    : -5.880882            5.822539             4.108501
| 47> *
| 48>
| 49> #Run DFT-D3 single point of the particle with dimer basis set
| 50> $new_job
| 51> %base "2-128_DFT_B"
| 52> ! wB97X-D3 def2-TZVP TIGHTSCF CHELPG PMODEL
| 53>
| 54> %scf
| 55> MaxIter 1000
| 56> end
| 57>
| 58> * xyz 0 1
| 59>   C                    : 0.388477             4.100360             7.695616
| 60>   O                    : -0.947411            4.692757             7.944071
| 61>   H                    : -1.091817            5.388982             7.292805
| 62>   H                    : 1.164795             4.910124             7.802517
| 63>   H                    : 0.723529             3.246645             8.329768
| 64>   H                    : 0.383064             3.620852             6.668489
| 65>   C                      -5.133653            6.341155             4.742406
| 66>   O                      -5.119965            5.757814             5.996789
| 67>   H                      -4.614317            6.391830             6.569836
| 68>   H                      -5.439715            7.357164             4.755278
| 69>   H                      -4.234583            6.205325             4.158552
| 70>   H                      -5.880882            5.822539             4.108501
| 71> *
| 72>
| 73>                          ****END OF INPUT****
 Total Charge           Charge          ....    0
 Multiplicity           Mult            ....    1
 Number of Electrons    NEL             ....   36
Dispersion correction           -0.000719976
FINAL SINGLE POINT ENERGY      -231.458986309915
Dispersion correction           -0.000286752
FINAL SINGLE POINT ENERGY      -115.726660336531

CARTESIAN COORDINATES (ANGSTROEM)
---------------------------------
  C      0.388477    4.100360    7.695616
  O     -0.947411    4.692757    7.944071
  H     -1.091817    5.388982    7.292805
  H      1.164795    4.910124    7.802517
  H      0.723529    3.246645    8.329768
  H      0.383064    3.620852    6.668489
  C     -5.133653    6.341155    4.742406
  O     -5.119965    5.757814    5.996789
  H     -4.614317    6.391830    6.569836
  H     -5.439715    7.357164    4.755278
  H     -4.234583    6.205325    4.158552
  H     -5.880882    5.822539    4.108501

 Multiplicity           Mult            ....    1
 Number of Electrons    NEL             ....   18
 Basis Dimension        Dim             ....  172

ORBITAL ENERGIES
----------------

  NO   OCC          E(Eh)            E(eV)
   0   2.0000     -19.235702      -523.4301
   1   2.0000     -10.305455      -280.4257
   2   2.0000      -1.142757       -31.0960
   3   2.0000      -0.793797       -21.6003
   4   2.0000      -0.613680       -16.6991
   5   2.0000      -0.551471       -15.0063
   6   2.0000      -0.526842       -14.3361
   7   2.0000      -0.429931       -11.6990
   8   2.0000      -0.374807       -10.1990
   9   0.0000       0.084081         2.2879
  10   0.0000       0.110247         3.0000
  11   0.0000       0.153038         4.1644
  12   0.0000       0.170829         4.6485
  13   0.0000       0.199153         5.4192

MULLIKEN ATOMIC CHARGES
-----------------------
   0 C :    0.000071
   1 O :    0.000034
   2 H :   -0.000609
   3 H :   -0.000003
   4 H :    0.000003
   5 H :   -0.000007
   6 C :   -0.166139
   7 O :   -0.462985
   8 H :    0.317577
   9 H :    0.105210
  10 H :    0.098882
  11 H :    0.107965
Sum of atomic charges:    0.0000000

LOEWDIN ATOMIC CHARGES
----------------------
   0 C :   -0.000005
   1 O :   -0.000031
   2 H :   -0.000345
   3 H :   -0.000000
   4 H :   -0.000001
   5 H :   -0.000000
   6 C :   -0.417767
   7 O :   -0.064650
   8 H :    0.192737
   9 H :    0.087963
  10 H :    0.090714
  11 H :    0.111384

  Mayer bond orders larger than 0.1
B(  6-C ,  7-O ) :   1.0126 B(  6-C ,  9-H ) :   0.9806 B(  6-C , 10-H ) :   0.9725
B(  6-C , 11-H ) :   0.9757 B(  7-O ,  8-H ) :   0.8946

Dispersion correction           -0.000231123
FINAL SINGLE POINT ENERGY      -115.732739231212

DIPOLE MOMENT
-------------
                                X             Y             Z
Electronic contribution:      0.01335      -0.81358       1.71200
Nuclear contribution   :      0.27372       1.42662      -1.83087
                        -----------------------------------------
Total Dipole Moment    :      0.28707       0.61305      -0.11887
                        -----------------------------------------
Magnitude (a.u.)       :      0.68729
Magnitude (Debye)      :      1.74695

Rotational constants in cm-1:     4.370337     0.858205     0.826160
Rotational constants in MHz : 131019.408041 25728.329588 24767.655934

                             ****ORCA TERMINATED NORMALLY****
TOTAL RUN TIME: 0 days 0 hours 6 minutes 21 seconds 333 msec
