                         Program Version 4.1.2  - RELEASE  -
|  1> #Run DFT-D3 single point of the dimer
|  2> ! wB97X-D3 def2-TZVP TIGHTSCF CHELPG PMODEL PAL8
|  3>
|  4> %base "4-165_DFT_AB"
|  5>
|  6> %scf
|  7> MaxIter 1000
|  8> end
|  9>
| 10> * xyz 0 1
| 11>   C                      2.722578             4.133135             -4.885620
| 12>   O                      4.120572             4.134643             -4.407210
| 13>   H                      4.093610             4.370129             -3.497614
| 14>   H                      2.658445             4.004755             -5.980850
| 15>   H                      2.083581             3.392493             -4.388767
| 16>   H                      2.263852             5.133771             -4.764851
| 17>   C                      5.319843             0.594491             -4.975979
| 18>   O                      6.404372             1.551814             -5.177278
| 19>   H                      6.082201             2.384677             -4.757944
| 20>   H                      5.256007             0.201112             -3.910968
| 21>   H                      4.395750             1.121554             -5.168776
| 22>   H                      5.517838             -0.312185            -5.654065
| 23> *
| 24>
| 25> #Run DFT-D3 single point of the molecule with dimer basis set
| 26> $new_job
| 27> %base "4-165_DFT_A"
| 28> ! wB97X-D3 def2-TZVP TIGHTSCF CHELPG PMODEL
| 29>
| 30> %scf
| 31> MaxIter 1000
| 32> end
| 33>
| 34> * xyz 0 1
| 35>   C                      2.722578             4.133135             -4.885620
| 36>   O                      4.120572             4.134643             -4.407210
| 37>   H                      4.093610             4.370129             -3.497614
| 38>   H                      2.658445             4.004755             -5.980850
| 39>   H                      2.083581             3.392493             -4.388767
| 40>   H                      2.263852             5.133771             -4.764851
| 41>   C                    : 5.319843             0.594491             -4.975979
| 42>   O                    : 6.404372             1.551814             -5.177278
| 43>   H                    : 6.082201             2.384677             -4.757944
| 44>   H                    : 5.256007             0.201112             -3.910968
| 45>   H                    : 4.395750             1.121554             -5.168776
| 46>   H                    : 5.517838             -0.312185            -5.654065
| 47> *
| 48>
| 49> #Run DFT-D3 single point of the particle with dimer basis set
| 50> $new_job
| 51> %base "4-165_DFT_B"
| 52> ! wB97X-D3 def2-TZVP TIGHTSCF CHELPG PMODEL
| 53>
| 54> %scf
| 55> MaxIter 1000
| 56> end
| 57>
| 58> * xyz 0 1
| 59>   C                    : 2.722578             4.133135             -4.885620
| 60>   O                    : 4.120572             4.134643             -4.407210
| 61>   H                    : 4.093610             4.370129             -3.497614
| 62>   H                    : 2.658445             4.004755             -5.980850
| 63>   H                    : 2.083581             3.392493             -4.388767
| 64>   H                    : 2.263852             5.133771             -4.764851
| 65>   C                      5.319843             0.594491             -4.975979
| 66>   O                      6.404372             1.551814             -5.177278
| 67>   H                      6.082201             2.384677             -4.757944
| 68>   H                      5.256007             0.201112             -3.910968
| 69>   H                      4.395750             1.121554             -5.168776
| 70>   H                      5.517838             -0.312185            -5.654065
| 71> *
| 72>
| 73>                          ****END OF INPUT****
 Total Charge           Charge          ....    0
 Multiplicity           Mult            ....    1
 Number of Electrons    NEL             ....   36
Dispersion correction           -0.001717261
FINAL SINGLE POINT ENERGY      -231.468182649127
Dispersion correction           -0.000277858
FINAL SINGLE POINT ENERGY      -115.732466691812

CARTESIAN COORDINATES (ANGSTROEM)
---------------------------------
  C      2.722578    4.133135   -4.885620
  O      4.120572    4.134643   -4.407210
  H      4.093610    4.370129   -3.497614
  H      2.658445    4.004755   -5.980850
  H      2.083581    3.392493   -4.388767
  H      2.263852    5.133771   -4.764851
  C      5.319843    0.594491   -4.975979
  O      6.404372    1.551814   -5.177278
  H      6.082201    2.384677   -4.757944
  H      5.256007    0.201112   -3.910968
  H      4.395750    1.121554   -5.168776
  H      5.517838   -0.312185   -5.654065

 Multiplicity           Mult            ....    1
 Number of Electrons    NEL             ....   18
 Basis Dimension        Dim             ....  172

ORBITAL ENERGIES
----------------

  NO   OCC          E(Eh)            E(eV)
   0   2.0000     -19.233385      -523.3670
   1   2.0000     -10.326245      -280.9914
   2   2.0000      -1.120101       -30.4795
   3   2.0000      -0.786301       -21.3963
   4   2.0000      -0.600941       -16.3524
   5   2.0000      -0.533868       -14.5273
   6   2.0000      -0.513784       -13.9808
   7   2.0000      -0.440637       -11.9903
   8   2.0000      -0.372462       -10.1352
   9   0.0000       0.066869         1.8196
  10   0.0000       0.121630         3.3097
  11   0.0000       0.143528         3.9056
  12   0.0000       0.163436         4.4473
  13   0.0000       0.184893         5.0312

MULLIKEN ATOMIC CHARGES
-----------------------
   0 C :    0.000822
   1 O :   -0.001203
   2 H :   -0.000180
   3 H :   -0.000160
   4 H :   -0.000407
   5 H :    0.000008
   6 C :   -0.180139
   7 O :   -0.473782
   8 H :    0.312736
   9 H :    0.102961
  10 H :    0.112007
  11 H :    0.127337
Sum of atomic charges:    0.0000000

LOEWDIN ATOMIC CHARGES
----------------------
   0 C :   -0.001529
   1 O :   -0.003268
   2 H :   -0.000412
   3 H :   -0.000102
   4 H :   -0.000227
   5 H :   -0.000014
   6 C :   -0.366040
   7 O :   -0.121544
   8 H :    0.179829
   9 H :    0.100825
  10 H :    0.092564
  11 H :    0.119919

  Mayer bond orders larger than 0.1
B(  6-C ,  7-O ) :   0.9923 B(  6-C ,  9-H ) :   0.9663 B(  6-C , 10-H ) :   0.9781
B(  6-C , 11-H ) :   0.9713 B(  7-O ,  8-H ) :   0.9028

Dispersion correction           -0.000259122
FINAL SINGLE POINT ENERGY      -115.730338356470

DIPOLE MOMENT
-------------
                                X             Y             Z
Electronic contribution:      1.39887       1.08132      -0.38262
Nuclear contribution   :     -2.04674      -0.95297       0.71353
                        -----------------------------------------
Total Dipole Moment    :     -0.64787       0.12834       0.33091
                        -----------------------------------------
Magnitude (a.u.)       :      0.73872
Magnitude (Debye)      :      1.87767

Rotational constants in cm-1:     3.998335     0.794517     0.756373
Rotational constants in MHz : 119867.068437 23819.033386 22675.495803

                             ****ORCA TERMINATED NORMALLY****
TOTAL RUN TIME: 0 days 0 hours 1 minutes 27 seconds 422 msec
