                         Program Version 4.1.2  - RELEASE  -
|  1> #Run DFT-D3 single point of the dimer
|  2> ! wB97X-D3 def2-TZVP TIGHTSCF CHELPG PMODEL PAL8
|  3>
|  4> %base "9-22_DFT_AB"
|  5>
|  6> %scf
|  7> MaxIter 1000
|  8> end
|  9>
| 10> * xyz 0 1
| 11>   C                      1.487376             -0.428665            4.266690
| 12>   O                      2.630056             -0.194025            5.057445
| 13>   H                      2.762876             -0.876611            5.745413
| 14>   H                      1.308714             0.285588             3.519412
| 15>   H                      1.633911             -1.323911            3.744331
| 16>   H                      0.553844             -0.624710            4.835763
| 17>   C                      4.357055             -0.921012            0.508239
| 18>   O                      4.768038             -2.020735            -0.250055
| 19>   H                      5.388173             -2.572599            0.225571
| 20>   H                      3.704529             -1.196182            1.324755
| 21>   H                      5.206016             -0.304580            0.819030
| 22>   H                      3.826832             -0.204135            -0.156533
| 23> *
| 24>
| 25> #Run DFT-D3 single point of the molecule with dimer basis set
| 26> $new_job
| 27> %base "9-22_DFT_A"
| 28> ! wB97X-D3 def2-TZVP TIGHTSCF CHELPG PMODEL
| 29>
| 30> %scf
| 31> MaxIter 1000
| 32> end
| 33>
| 34> * xyz 0 1
| 35>   C                      1.487376             -0.428665            4.266690
| 36>   O                      2.630056             -0.194025            5.057445
| 37>   H                      2.762876             -0.876611            5.745413
| 38>   H                      1.308714             0.285588             3.519412
| 39>   H                      1.633911             -1.323911            3.744331
| 40>   H                      0.553844             -0.624710            4.835763
| 41>   C                    : 4.357055             -0.921012            0.508239
| 42>   O                    : 4.768038             -2.020735            -0.250055
| 43>   H                    : 5.388173             -2.572599            0.225571
| 44>   H                    : 3.704529             -1.196182            1.324755
| 45>   H                    : 5.206016             -0.304580            0.819030
| 46>   H                    : 3.826832             -0.204135            -0.156533
| 47> *
| 48>
| 49> #Run DFT-D3 single point of the particle with dimer basis set
| 50> $new_job
| 51> %base "9-22_DFT_B"
| 52> ! wB97X-D3 def2-TZVP TIGHTSCF CHELPG PMODEL
| 53>
| 54> %scf
| 55> MaxIter 1000
| 56> end
| 57>
| 58> * xyz 0 1
| 59>   C                    : 1.487376             -0.428665            4.266690
| 60>   O                    : 2.630056             -0.194025            5.057445
| 61>   H                    : 2.762876             -0.876611            5.745413
| 62>   H                    : 1.308714             0.285588             3.519412
| 63>   H                    : 1.633911             -1.323911            3.744331
| 64>   H                    : 0.553844             -0.624710            4.835763
| 65>   C                      4.357055             -0.921012            0.508239
| 66>   O                      4.768038             -2.020735            -0.250055
| 67>   H                      5.388173             -2.572599            0.225571
| 68>   H                      3.704529             -1.196182            1.324755
| 69>   H                      5.206016             -0.304580            0.819030
| 70>   H                      3.826832             -0.204135            -0.156533
| 71> *
| 72>
| 73>                          ****END OF INPUT****
 Total Charge           Charge          ....    0
 Multiplicity           Mult            ....    1
 Number of Electrons    NEL             ....   36
Dispersion correction           -0.000951687
FINAL SINGLE POINT ENERGY      -231.465316609421
Dispersion correction           -0.000243512
FINAL SINGLE POINT ENERGY      -115.729536362296

CARTESIAN COORDINATES (ANGSTROEM)
---------------------------------
  C      1.487376   -0.428665    4.266690
  O      2.630056   -0.194025    5.057445
  H      2.762876   -0.876611    5.745413
  H      1.308714    0.285588    3.519412
  H      1.633911   -1.323911    3.744331
  H      0.553844   -0.624710    4.835763
  C      4.357055   -0.921012    0.508239
  O      4.768038   -2.020735   -0.250055
  H      5.388173   -2.572599    0.225571
  H      3.704529   -1.196182    1.324755
  H      5.206016   -0.304580    0.819030
  H      3.826832   -0.204135   -0.156533

 Multiplicity           Mult            ....    1
 Number of Electrons    NEL             ....   18
 Basis Dimension        Dim             ....  172

ORBITAL ENERGIES
----------------

  NO   OCC          E(Eh)            E(eV)
   0   2.0000     -19.227739      -523.2134
   1   2.0000     -10.311880      -280.6005
   2   2.0000      -1.138709       -30.9858
   3   2.0000      -0.796837       -21.6830
   4   2.0000      -0.612275       -16.6609
   5   2.0000      -0.552470       -15.0335
   6   2.0000      -0.524101       -14.2615
   7   2.0000      -0.421234       -11.4624
   8   2.0000      -0.375605       -10.2207
   9   0.0000       0.082298         2.2394
  10   0.0000       0.119115         3.2413
  11   0.0000       0.148693         4.0461
  12   0.0000       0.165613         4.5066
  13   0.0000       0.186152         5.0654

MULLIKEN ATOMIC CHARGES
-----------------------
   0 C :   -0.000519
   1 O :    0.000070
   2 H :    0.000003
   3 H :   -0.000019
   4 H :   -0.000052
   5 H :   -0.000028
   6 C :   -0.154696
   7 O :   -0.481377
   8 H :    0.315952
   9 H :    0.105677
  10 H :    0.101217
  11 H :    0.113772
Sum of atomic charges:   -0.0000000

LOEWDIN ATOMIC CHARGES
----------------------
   0 C :   -0.000969
   1 O :   -0.000010
   2 H :   -0.000004
   3 H :   -0.000127
   4 H :   -0.000556
   5 H :   -0.000012
   6 C :   -0.399014
   7 O :   -0.065823
   8 H :    0.165777
   9 H :    0.092129
  10 H :    0.095217
  11 H :    0.113390

  Mayer bond orders larger than 0.1
B(  6-C ,  7-O ) :   0.9969 B(  6-C ,  9-H ) :   0.9744 B(  6-C , 10-H ) :   0.9789
B(  6-C , 11-H ) :   0.9709 B(  7-O ,  8-H ) :   0.8965

Dispersion correction           -0.000245963
FINAL SINGLE POINT ENERGY      -115.735072928459

DIPOLE MOMENT
-------------
                                X             Y             Z
Electronic contribution:      0.44097      -1.47401      -0.96650
Nuclear contribution   :     -0.19548       1.56607       1.56269
                        -----------------------------------------
Total Dipole Moment    :      0.24550       0.09206       0.59618
                        -----------------------------------------
Magnitude (a.u.)       :      0.65129
Magnitude (Debye)      :      1.65545

Rotational constants in cm-1:     4.361802     0.835968     0.816020
Rotational constants in MHz : 130763.520301 25061.690214 24463.666355

                             ****ORCA TERMINATED NORMALLY****
TOTAL RUN TIME: 0 days 0 hours 0 minutes 38 seconds 783 msec
