                         Program Version 4.1.2  - RELEASE  -
|  1> #Run DFT-D3 single point of the dimer
|  2> ! wB97X-D3 def2-TZVP TIGHTSCF CHELPG PMODEL PAL8
|  3>
|  4> %base "1-126_DFT_AB"
|  5>
|  6> %scf
|  7> MaxIter 1000
|  8> end
|  9>
| 10> * xyz 0 1
| 11>   C                      8.306979             -1.199292            -5.182348
| 12>   O                      7.537905             -1.703815            -6.246899
| 13>   H                      7.832907             -1.390369            -7.097220
| 14>   H                      8.184739             -0.143854            -5.200148
| 15>   H                      8.096430             -1.585496            -4.205000
| 16>   H                      9.355720             -1.370345            -5.333518
| 17>   C                      2.634205             -1.461037            -7.799375
| 18>   O                      2.958779             -2.531080            -6.959530
| 19>   H                      2.214326             -3.106339            -6.932803
| 20>   H                      2.605033             -1.685040            -8.822651
| 21>   H                      1.682317             -1.114751            -7.452413
| 22>   H                      3.331367             -0.619623            -7.696719
| 23> *
| 24>
| 25> #Run DFT-D3 single point of the molecule with dimer basis set
| 26> $new_job
| 27> %base "1-126_DFT_A"
| 28> ! wB97X-D3 def2-TZVP TIGHTSCF CHELPG PMODEL
| 29>
| 30> %scf
| 31> MaxIter 1000
| 32> end
| 33>
| 34> * xyz 0 1
| 35>   C                      8.306979             -1.199292            -5.182348
| 36>   O                      7.537905             -1.703815            -6.246899
| 37>   H                      7.832907             -1.390369            -7.097220
| 38>   H                      8.184739             -0.143854            -5.200148
| 39>   H                      8.096430             -1.585496            -4.205000
| 40>   H                      9.355720             -1.370345            -5.333518
| 41>   C                    : 2.634205             -1.461037            -7.799375
| 42>   O                    : 2.958779             -2.531080            -6.959530
| 43>   H                    : 2.214326             -3.106339            -6.932803
| 44>   H                    : 2.605033             -1.685040            -8.822651
| 45>   H                    : 1.682317             -1.114751            -7.452413
| 46>   H                    : 3.331367             -0.619623            -7.696719
| 47> *
| 48>
| 49> #Run DFT-D3 single point of the particle with dimer basis set
| 50> $new_job
| 51> %base "1-126_DFT_B"
| 52> ! wB97X-D3 def2-TZVP TIGHTSCF CHELPG PMODEL
| 53>
| 54> %scf
| 55> MaxIter 1000
| 56> end
| 57>
| 58> * xyz 0 1
| 59>   C                    : 8.306979             -1.199292            -5.182348
| 60>   O                    : 7.537905             -1.703815            -6.246899
| 61>   H                    : 7.832907             -1.390369            -7.097220
| 62>   H                    : 8.184739             -0.143854            -5.200148
| 63>   H                    : 8.096430             -1.585496            -4.205000
| 64>   H                    : 9.355720             -1.370345            -5.333518
| 65>   C                      2.634205             -1.461037            -7.799375
| 66>   O                      2.958779             -2.531080            -6.959530
| 67>   H                      2.214326             -3.106339            -6.932803
| 68>   H                      2.605033             -1.685040            -8.822651
| 69>   H                      1.682317             -1.114751            -7.452413
| 70>   H                      3.331367             -0.619623            -7.696719
| 71> *
| 72>
| 73>                          ****END OF INPUT****
 Total Charge           Charge          ....    0
 Multiplicity           Mult            ....    1
 Number of Electrons    NEL             ....   36
Dispersion correction           -0.000603163
FINAL SINGLE POINT ENERGY      -231.462245616856
Dispersion correction           -0.000227317
FINAL SINGLE POINT ENERGY      -115.731187975379

CARTESIAN COORDINATES (ANGSTROEM)
---------------------------------
  C      8.306979   -1.199292   -5.182348
  O      7.537905   -1.703815   -6.246899
  H      7.832907   -1.390369   -7.097220
  H      8.184739   -0.143854   -5.200148
  H      8.096430   -1.585496   -4.205000
  H      9.355720   -1.370345   -5.333518
  C      2.634205   -1.461037   -7.799375
  O      2.958779   -2.531080   -6.959530
  H      2.214326   -3.106339   -6.932803
  H      2.605033   -1.685040   -8.822651
  H      1.682317   -1.114751   -7.452413
  H      3.331367   -0.619623   -7.696719

 Multiplicity           Mult            ....    1
 Number of Electrons    NEL             ....   18
 Basis Dimension        Dim             ....  172

ORBITAL ENERGIES
----------------

  NO   OCC          E(Eh)            E(eV)
   0   2.0000     -19.225883      -523.1629
   1   2.0000     -10.304727      -280.4059
   2   2.0000      -1.144178       -31.1347
   3   2.0000      -0.800989       -21.7960
   4   2.0000      -0.614998       -16.7349
   5   2.0000      -0.554803       -15.0969
   6   2.0000      -0.530973       -14.4485
   7   2.0000      -0.428934       -11.6719
   8   2.0000      -0.374064       -10.1788
   9   0.0000       0.091749         2.4966
  10   0.0000       0.117802         3.2056
  11   0.0000       0.157384         4.2826
  12   0.0000       0.168864         4.5950
  13   0.0000       0.201014         5.4699

MULLIKEN ATOMIC CHARGES
-----------------------
   0 C :   -0.000025
   1 O :   -0.000023
   2 H :   -0.000010
   3 H :   -0.000001
   4 H :    0.000002
   5 H :    0.000000
   6 C :   -0.150240
   7 O :   -0.473207
   8 H :    0.312057
   9 H :    0.103611
  10 H :    0.094437
  11 H :    0.113399
Sum of atomic charges:    0.0000000

LOEWDIN ATOMIC CHARGES
----------------------
   0 C :   -0.000006
   1 O :   -0.000020
   2 H :   -0.000007
   3 H :   -0.000000
   4 H :   -0.000000
   5 H :   -0.000000
   6 C :   -0.385582
   7 O :   -0.058889
   8 H :    0.158357
   9 H :    0.083930
  10 H :    0.092475
  11 H :    0.109742

  Mayer bond orders larger than 0.1
B(  6-C ,  7-O ) :   0.9966 B(  6-C ,  9-H ) :   0.9705 B(  6-C , 10-H ) :   0.9968
B(  6-C , 11-H ) :   0.9736 B(  7-O ,  8-H ) :   0.9037

Dispersion correction           -0.000216225
FINAL SINGLE POINT ENERGY      -115.732153027469

DIPOLE MOMENT
-------------
                                X             Y             Z
Electronic contribution:      0.57223      -1.37377       1.01048
Nuclear contribution   :     -1.18263       1.43842      -1.32737
                        -----------------------------------------
Total Dipole Moment    :     -0.61040       0.06464      -0.31689
                        -----------------------------------------
Magnitude (a.u.)       :      0.69079
Magnitude (Debye)      :      1.75585

Rotational constants in cm-1:     4.505426     0.851486     0.822233
Rotational constants in MHz : 135069.259078 25526.907596 24649.913166

                             ****ORCA TERMINATED NORMALLY****
TOTAL RUN TIME: 0 days 0 hours 5 minutes 38 seconds 364 msec
