                         Program Version 4.1.2  - RELEASE  -
|  1> #Run DFT-D3 single point of the dimer
|  2> ! wB97X-D3 def2-TZVP TIGHTSCF CHELPG PMODEL PAL8
|  3>
|  4> %base "13-205_DFT_AB"
|  5>
|  6> %scf
|  7> MaxIter 1000
|  8> end
|  9>
| 10> * xyz 0 1
| 11>   C                      -8.780170            -0.005210            1.369627
| 12>   O                      -9.186210            -0.753698            0.255465
| 13>   H                      -9.206052            -0.176593            -0.485344
| 14>   H                      -8.738875            -0.594958            2.254394
| 15>   H                      -7.789838            0.382653             1.322677
| 16>   H                      -9.441649            0.884311             1.442646
| 17>   C                      -9.616730            -3.824577            2.018794
| 18>   O                      -9.593404            -3.533576            0.662581
| 19>   H                      -9.150016            -2.744085            0.427374
| 20>   H                      -8.576193            -3.770551            2.414220
| 21>   H                      -10.273800           -3.144696            2.599141
| 22>   H                      -10.047138           -4.831438            2.146995
| 23> *
| 24>
| 25> #Run DFT-D3 single point of the molecule with dimer basis set
| 26> $new_job
| 27> %base "13-205_DFT_A"
| 28> ! wB97X-D3 def2-TZVP TIGHTSCF CHELPG PMODEL
| 29>
| 30> %scf
| 31> MaxIter 1000
| 32> end
| 33>
| 34> * xyz 0 1
| 35>   C                      -8.780170            -0.005210            1.369627
| 36>   O                      -9.186210            -0.753698            0.255465
| 37>   H                      -9.206052            -0.176593            -0.485344
| 38>   H                      -8.738875            -0.594958            2.254394
| 39>   H                      -7.789838            0.382653             1.322677
| 40>   H                      -9.441649            0.884311             1.442646
| 41>   C                    : -9.616730            -3.824577            2.018794
| 42>   O                    : -9.593404            -3.533576            0.662581
| 43>   H                    : -9.150016            -2.744085            0.427374
| 44>   H                    : -8.576193            -3.770551            2.414220
| 45>   H                    : -10.273800           -3.144696            2.599141
| 46>   H                    : -10.047138           -4.831438            2.146995
| 47> *
| 48>
| 49> #Run DFT-D3 single point of the particle with dimer basis set
| 50> $new_job
| 51> %base "13-205_DFT_B"
| 52> ! wB97X-D3 def2-TZVP TIGHTSCF CHELPG PMODEL
| 53>
| 54> %scf
| 55> MaxIter 1000
| 56> end
| 57>
| 58> * xyz 0 1
| 59>   C                    : -8.780170            -0.005210            1.369627
| 60>   O                    : -9.186210            -0.753698            0.255465
| 61>   H                    : -9.206052            -0.176593            -0.485344
| 62>   H                    : -8.738875            -0.594958            2.254394
| 63>   H                    : -7.789838            0.382653             1.322677
| 64>   H                    : -9.441649            0.884311             1.442646
| 65>   C                      -9.616730            -3.824577            2.018794
| 66>   O                      -9.593404            -3.533576            0.662581
| 67>   H                      -9.150016            -2.744085            0.427374
| 68>   H                      -8.576193            -3.770551            2.414220
| 69>   H                      -10.273800           -3.144696            2.599141
| 70>   H                      -10.047138           -4.831438            2.146995
| 71> *
| 72>
| 73>                          ****END OF INPUT****
 Total Charge           Charge          ....    0
 Multiplicity           Mult            ....    1
 Number of Electrons    NEL             ....   36
Dispersion correction           -0.001940164
FINAL SINGLE POINT ENERGY      -231.473968516519
Dispersion correction           -0.000225077
FINAL SINGLE POINT ENERGY      -115.732824539697

CARTESIAN COORDINATES (ANGSTROEM)
---------------------------------
  C     -8.780170   -0.005210    1.369627
  O     -9.186210   -0.753698    0.255465
  H     -9.206052   -0.176593   -0.485344
  H     -8.738875   -0.594958    2.254394
  H     -7.789838    0.382653    1.322677
  H     -9.441649    0.884311    1.442646
  C     -9.616730   -3.824577    2.018794
  O     -9.593404   -3.533576    0.662581
  H     -9.150016   -2.744085    0.427374
  H     -8.576193   -3.770551    2.414220
  H    -10.273800   -3.144696    2.599141
  H    -10.047138   -4.831438    2.146995

 Multiplicity           Mult            ....    1
 Number of Electrons    NEL             ....   18
 Basis Dimension        Dim             ....  172

ORBITAL ENERGIES
----------------

  NO   OCC          E(Eh)            E(eV)
   0   2.0000     -19.225022      -523.1394
   1   2.0000     -10.316717      -280.7322
   2   2.0000      -1.144618       -31.1466
   3   2.0000      -0.797482       -21.7006
   4   2.0000      -0.617144       -16.7934
   5   2.0000      -0.545111       -14.8332
   6   2.0000      -0.530779       -14.4432
   7   2.0000      -0.423328       -11.5193
   8   2.0000      -0.371348       -10.1049
   9   0.0000       0.071415         1.9433
  10   0.0000       0.136339         3.7100
  11   0.0000       0.142895         3.8884
  12   0.0000       0.177287         4.8242
  13   0.0000       0.187156         5.0928

MULLIKEN ATOMIC CHARGES
-----------------------
   0 C :   -0.004081
   1 O :   -0.005285
   2 H :   -0.000630
   3 H :    0.000715
   4 H :    0.000223
   5 H :    0.000062
   6 C :   -0.146122
   7 O :   -0.473328
   8 H :    0.314796
   9 H :    0.097921
  10 H :    0.092939
  11 H :    0.122790
Sum of atomic charges:   -0.0000000

LOEWDIN ATOMIC CHARGES
----------------------
   0 C :   -0.004536
   1 O :   -0.018829
   2 H :   -0.000988
   3 H :   -0.001029
   4 H :   -0.000064
   5 H :   -0.000086
   6 C :   -0.400634
   7 O :   -0.036490
   8 H :    0.157862
   9 H :    0.098653
  10 H :    0.094251
  11 H :    0.111890

  Mayer bond orders larger than 0.1
B(  6-C ,  7-O ) :   0.9943 B(  6-C ,  9-H ) :   0.9846 B(  6-C , 10-H ) :   0.9699
B(  6-C , 11-H ) :   0.9723 B(  7-O ,  8-H ) :   0.9018

Dispersion correction           -0.000244588
FINAL SINGLE POINT ENERGY      -115.735043607523

DIPOLE MOMENT
-------------
                                X             Y             Z
Electronic contribution:     -0.02407       0.27024      -1.76001
Nuclear contribution   :      0.30053       0.11879       2.13166
                        -----------------------------------------
Total Dipole Moment    :      0.27647       0.38903       0.37165
                        -----------------------------------------
Magnitude (a.u.)       :      0.60490
Magnitude (Debye)      :      1.53753

Rotational constants in cm-1:     4.297989     0.849453     0.821998
Rotational constants in MHz : 128850.471707 25465.966570 24642.880544

                             ****ORCA TERMINATED NORMALLY****
TOTAL RUN TIME: 0 days 0 hours 1 minutes 4 seconds 39 msec
