                         Program Version 4.1.2  - RELEASE  -
|  1> #Run DFT-D3 single point of the dimer
|  2> ! wB97X-D3 def2-TZVP TIGHTSCF CHELPG PMODEL PAL8
|  3>
|  4> %base "13-206_DFT_AB"
|  5>
|  6> %scf
|  7> MaxIter 1000
|  8> end
|  9>
| 10> * xyz 0 1
| 11>   C                      10.504551            -11.180506           -0.179575
| 12>   O                      9.425508             -11.131380           -1.103996
| 13>   H                      8.716325             -10.826452           -0.523253
| 14>   H                      10.316046            -11.977736           0.589473
| 15>   H                      11.376198            -11.512109           -0.812800
| 16>   H                      10.759810            -10.249666           0.345818
| 17>   C                      8.739010             -7.472333            0.384372
| 18>   O                      9.423691             -8.127046            -0.704583
| 19>   H                      10.321739            -8.330021            -0.494526
| 20>   H                      8.843660             -8.055029            1.293101
| 21>   H                      9.152455             -6.457081            0.466172
| 22>   H                      7.672785             -7.384907            0.144877
| 23> *
| 24>
| 25> #Run DFT-D3 single point of the molecule with dimer basis set
| 26> $new_job
| 27> %base "13-206_DFT_A"
| 28> ! wB97X-D3 def2-TZVP TIGHTSCF CHELPG PMODEL
| 29>
| 30> %scf
| 31> MaxIter 1000
| 32> end
| 33>
| 34> * xyz 0 1
| 35>   C                      10.504551            -11.180506           -0.179575
| 36>   O                      9.425508             -11.131380           -1.103996
| 37>   H                      8.716325             -10.826452           -0.523253
| 38>   H                      10.316046            -11.977736           0.589473
| 39>   H                      11.376198            -11.512109           -0.812800
| 40>   H                      10.759810            -10.249666           0.345818
| 41>   C                    : 8.739010             -7.472333            0.384372
| 42>   O                    : 9.423691             -8.127046            -0.704583
| 43>   H                    : 10.321739            -8.330021            -0.494526
| 44>   H                    : 8.843660             -8.055029            1.293101
| 45>   H                    : 9.152455             -6.457081            0.466172
| 46>   H                    : 7.672785             -7.384907            0.144877
| 47> *
| 48>
| 49> #Run DFT-D3 single point of the particle with dimer basis set
| 50> $new_job
| 51> %base "13-206_DFT_B"
| 52> ! wB97X-D3 def2-TZVP TIGHTSCF CHELPG PMODEL
| 53>
| 54> %scf
| 55> MaxIter 1000
| 56> end
| 57>
| 58> * xyz 0 1
| 59>   C                    : 10.504551            -11.180506           -0.179575
| 60>   O                    : 9.425508             -11.131380           -1.103996
| 61>   H                    : 8.716325             -10.826452           -0.523253
| 62>   H                    : 10.316046            -11.977736           0.589473
| 63>   H                    : 11.376198            -11.512109           -0.812800
| 64>   H                    : 10.759810            -10.249666           0.345818
| 65>   C                      8.739010             -7.472333            0.384372
| 66>   O                      9.423691             -8.127046            -0.704583
| 67>   H                      10.321739            -8.330021            -0.494526
| 68>   H                      8.843660             -8.055029            1.293101
| 69>   H                      9.152455             -6.457081            0.466172
| 70>   H                      7.672785             -7.384907            0.144877
| 71> *
| 72>
| 73>                          ****END OF INPUT****
 Total Charge           Charge          ....    0
 Multiplicity           Mult            ....    1
 Number of Electrons    NEL             ....   36
Dispersion correction           -0.002107182
FINAL SINGLE POINT ENERGY      -231.467829514715
Dispersion correction           -0.000235785
FINAL SINGLE POINT ENERGY      -115.733249334554

CARTESIAN COORDINATES (ANGSTROEM)
---------------------------------
  C     10.504551  -11.180506   -0.179575
  O      9.425508  -11.131380   -1.103996
  H      8.716325  -10.826452   -0.523253
  H     10.316046  -11.977736    0.589473
  H     11.376198  -11.512109   -0.812800
  H     10.759810  -10.249666    0.345818
  C      8.739010   -7.472333    0.384372
  O      9.423691   -8.127046   -0.704583
  H     10.321739   -8.330021   -0.494526
  H      8.843660   -8.055029    1.293101
  H      9.152455   -6.457081    0.466172
  H      7.672785   -7.384907    0.144877

 Multiplicity           Mult            ....    1
 Number of Electrons    NEL             ....   18
 Basis Dimension        Dim             ....  172

ORBITAL ENERGIES
----------------

  NO   OCC          E(Eh)            E(eV)
   0   2.0000     -19.224950      -523.1375
   1   2.0000     -10.316566      -280.7280
   2   2.0000      -1.126917       -30.6650
   3   2.0000      -0.799270       -21.7492
   4   2.0000      -0.603915       -16.4334
   5   2.0000      -0.545540       -14.8449
   6   2.0000      -0.527152       -14.3445
   7   2.0000      -0.428069       -11.6484
   8   2.0000      -0.374280       -10.1847
   9   0.0000       0.084753         2.3063
  10   0.0000       0.137794         3.7496
  11   0.0000       0.151452         4.1212
  12   0.0000       0.176120         4.7925
  13   0.0000       0.187845         5.1115

MULLIKEN ATOMIC CHARGES
-----------------------
   0 C :   -0.003196
   1 O :    0.003886
   2 H :   -0.002994
   3 H :   -0.000630
   4 H :    0.000104
   5 H :   -0.011235
   6 C :   -0.161088
   7 O :   -0.486264
   8 H :    0.315904
   9 H :    0.110974
  10 H :    0.109820
  11 H :    0.124719
Sum of atomic charges:    0.0000000

LOEWDIN ATOMIC CHARGES
----------------------
   0 C :   -0.010859
   1 O :   -0.005947
   2 H :   -0.006164
   3 H :   -0.000132
   4 H :   -0.000159
   5 H :   -0.007154
   6 C :   -0.355294
   7 O :   -0.074787
   8 H :    0.155332
   9 H :    0.094942
  10 H :    0.099561
  11 H :    0.110660

  Mayer bond orders larger than 0.1
B(  6-C ,  7-O ) :   0.9818 B(  6-C ,  9-H ) :   0.9739 B(  6-C , 10-H ) :   0.9796
B(  6-C , 11-H ) :   0.9724 B(  7-O ,  8-H ) :   0.8986

Dispersion correction           -0.000247410
FINAL SINGLE POINT ENERGY      -115.735823763424

DIPOLE MOMENT
-------------
                                X             Y             Z
Electronic contribution:      0.69691      -0.78001      -1.32533
Nuclear contribution   :     -0.42985       0.94513       1.92759
                        -----------------------------------------
Total Dipole Moment    :      0.26706       0.16512       0.60226
                        -----------------------------------------
Magnitude (a.u.)       :      0.67919
Magnitude (Debye)      :      1.72637

Rotational constants in cm-1:     4.298309     0.803147     0.781985
Rotational constants in MHz : 128860.064654 24077.742359 23443.313010

                             ****ORCA TERMINATED NORMALLY****
TOTAL RUN TIME: 0 days 0 hours 0 minutes 58 seconds 85 msec
