                         Program Version 4.1.2  - RELEASE  -
|  1> #Run DFT-D3 single point of the dimer
|  2> ! wB97X-D3 def2-TZVP TIGHTSCF CHELPG PMODEL PAL8
|  3>
|  4> %base "10-190_DFT_AB"
|  5>
|  6> %scf
|  7> MaxIter 1000
|  8> end
|  9>
| 10> * xyz 0 1
| 11>   C                      -8.948701            -0.439402            5.987862
| 12>   O                      -9.115364            -0.692188            4.565162
| 13>   H                      -9.844506            -1.290664            4.538672
| 14>   H                      -9.350161            0.522866             6.290320
| 15>   H                      -9.377751            -1.276286            6.651318
| 16>   H                      -7.851956            -0.349181            6.148207
| 17>   C                      -10.743004           1.820091             2.620393
| 18>   O                      -9.711612            1.782854             3.626180
| 19>   H                      -9.175963            0.974226             3.359488
| 20>   H                      -11.598526           2.488233             3.021385
| 21>   H                      -10.435831           2.280965             1.702688
| 22>   H                      -11.148913           0.839138             2.373878
| 23> *
| 24>
| 25> #Run DFT-D3 single point of the molecule with dimer basis set
| 26> $new_job
| 27> %base "10-190_DFT_A"
| 28> ! wB97X-D3 def2-TZVP TIGHTSCF CHELPG PMODEL
| 29>
| 30> %scf
| 31> MaxIter 1000
| 32> end
| 33>
| 34> * xyz 0 1
| 35>   C                      -8.948701            -0.439402            5.987862
| 36>   O                      -9.115364            -0.692188            4.565162
| 37>   H                      -9.844506            -1.290664            4.538672
| 38>   H                      -9.350161            0.522866             6.290320
| 39>   H                      -9.377751            -1.276286            6.651318
| 40>   H                      -7.851956            -0.349181            6.148207
| 41>   C                    : -10.743004           1.820091             2.620393
| 42>   O                    : -9.711612            1.782854             3.626180
| 43>   H                    : -9.175963            0.974226             3.359488
| 44>   H                    : -11.598526           2.488233             3.021385
| 45>   H                    : -10.435831           2.280965             1.702688
| 46>   H                    : -11.148913           0.839138             2.373878
| 47> *
| 48>
| 49> #Run DFT-D3 single point of the particle with dimer basis set
| 50> $new_job
| 51> %base "10-190_DFT_B"
| 52> ! wB97X-D3 def2-TZVP TIGHTSCF CHELPG PMODEL
| 53>
| 54> %scf
| 55> MaxIter 1000
| 56> end
| 57>
| 58> * xyz 0 1
| 59>   C                    : -8.948701            -0.439402            5.987862
| 60>   O                    : -9.115364            -0.692188            4.565162
| 61>   H                    : -9.844506            -1.290664            4.538672
| 62>   H                    : -9.350161            0.522866             6.290320
| 63>   H                    : -9.377751            -1.276286            6.651318
| 64>   H                    : -7.851956            -0.349181            6.148207
| 65>   C                      -10.743004           1.820091             2.620393
| 66>   O                      -9.711612            1.782854             3.626180
| 67>   H                      -9.175963            0.974226             3.359488
| 68>   H                      -11.598526           2.488233             3.021385
| 69>   H                      -10.435831           2.280965             1.702688
| 70>   H                      -11.148913           0.839138             2.373878
| 71> *
| 72>
| 73>                          ****END OF INPUT****
 Total Charge           Charge          ....    0
 Multiplicity           Mult            ....    1
 Number of Electrons    NEL             ....   36
Dispersion correction           -0.001908982
FINAL SINGLE POINT ENERGY      -231.467093662256
Dispersion correction           -0.000265857
FINAL SINGLE POINT ENERGY      -115.732026385081

CARTESIAN COORDINATES (ANGSTROEM)
---------------------------------
  C     -8.948701   -0.439402    5.987862
  O     -9.115364   -0.692188    4.565162
  H     -9.844506   -1.290664    4.538672
  H     -9.350161    0.522866    6.290320
  H     -9.377751   -1.276286    6.651318
  H     -7.851956   -0.349181    6.148207
  C    -10.743004    1.820091    2.620393
  O     -9.711612    1.782854    3.626180
  H     -9.175963    0.974226    3.359488
  H    -11.598526    2.488233    3.021385
  H    -10.435831    2.280965    1.702688
  H    -11.148913    0.839138    2.373878

 Multiplicity           Mult            ....    1
 Number of Electrons    NEL             ....   18
 Basis Dimension        Dim             ....  172

ORBITAL ENERGIES
----------------

  NO   OCC          E(Eh)            E(eV)
   0   2.0000     -19.239969      -523.5462
   1   2.0000     -10.318930      -280.7924
   2   2.0000      -1.125158       -30.6171
   3   2.0000      -0.789726       -21.4895
   4   2.0000      -0.603664       -16.4265
   5   2.0000      -0.540031       -14.6950
   6   2.0000      -0.514666       -14.0048
   7   2.0000      -0.440570       -11.9885
   8   2.0000      -0.376661       -10.2495
   9   0.0000       0.080301         2.1851
  10   0.0000       0.126717         3.4482
  11   0.0000       0.150428         4.0934
  12   0.0000       0.169411         4.6099
  13   0.0000       0.189729         5.1628

MULLIKEN ATOMIC CHARGES
-----------------------
   0 C :   -0.001030
   1 O :   -0.007138
   2 H :   -0.000832
   3 H :   -0.004282
   4 H :    0.000110
   5 H :   -0.000013
   6 C :   -0.183252
   7 O :   -0.451709
   8 H :    0.315447
   9 H :    0.116915
  10 H :    0.109729
  11 H :    0.106054
Sum of atomic charges:   -0.0000000

LOEWDIN ATOMIC CHARGES
----------------------
   0 C :   -0.009389
   1 O :   -0.021345
   2 H :   -0.001839
   3 H :   -0.003909
   4 H :   -0.000088
   5 H :   -0.000196
   6 C :   -0.380053
   7 O :   -0.088895
   8 H :    0.203153
   9 H :    0.120004
  10 H :    0.089036
  11 H :    0.093520

  Mayer bond orders larger than 0.1
B(  6-C ,  7-O ) :   1.0066 B(  6-C ,  9-H ) :   0.9758 B(  6-C , 10-H ) :   0.9720
B(  6-C , 11-H ) :   0.9735 B(  7-O ,  8-H ) :   0.8967

Dispersion correction           -0.000255117
FINAL SINGLE POINT ENERGY      -115.731406474383

DIPOLE MOMENT
-------------
                                X             Y             Z
Electronic contribution:      1.33304       0.03779       1.31996
Nuclear contribution   :     -1.42269      -0.50246      -1.89695
                        -----------------------------------------
Total Dipole Moment    :     -0.08965      -0.46467      -0.57699
                        -----------------------------------------
Magnitude (a.u.)       :      0.74624
Magnitude (Debye)      :      1.89680

Rotational constants in cm-1:     4.122287     0.808850     0.769227
Rotational constants in MHz : 123583.041629 24248.709578 23060.832806

                             ****ORCA TERMINATED NORMALLY****
TOTAL RUN TIME: 0 days 0 hours 1 minutes 7 seconds 934 msec
