                         Program Version 4.1.2  - RELEASE  -
|  1> #Run DFT-D3 single point of the dimer
|  2> ! wB97X-D3 def2-TZVP TIGHTSCF CHELPG PMODEL PAL8
|  3>
|  4> %base "19-166_DFT_AB"
|  5>
|  6> %scf
|  7> MaxIter 1000
|  8> end
|  9>
| 10> * xyz 0 1
| 11>   C                      -1.181265            -1.693056            -5.197983
| 12>   O                      -2.537102            -1.387165            -4.926656
| 13>   H                      -2.571869            -0.459236            -5.177508
| 14>   H                      -1.007342            -1.646664            -6.277704
| 15>   H                      -0.509238            -0.915298            -4.700614
| 16>   H                      -0.756636            -2.632401            -4.853080
| 17>   C                      -2.016624            2.634609             -4.850103
| 18>   O                      -2.856557            1.560374             -4.670585
| 19>   H                      -2.979499            1.629369             -3.730284
| 20>   H                      -1.816031            2.931660             -5.920906
| 21>   H                      -2.354388            3.592985             -4.373275
| 22>   H                      -1.068017            2.438966             -4.327261
| 23> *
| 24>
| 25> #Run DFT-D3 single point of the molecule with dimer basis set
| 26> $new_job
| 27> %base "19-166_DFT_A"
| 28> ! wB97X-D3 def2-TZVP TIGHTSCF CHELPG PMODEL
| 29>
| 30> %scf
| 31> MaxIter 1000
| 32> end
| 33>
| 34> * xyz 0 1
| 35>   C                      -1.181265            -1.693056            -5.197983
| 36>   O                      -2.537102            -1.387165            -4.926656
| 37>   H                      -2.571869            -0.459236            -5.177508
| 38>   H                      -1.007342            -1.646664            -6.277704
| 39>   H                      -0.509238            -0.915298            -4.700614
| 40>   H                      -0.756636            -2.632401            -4.853080
| 41>   C                    : -2.016624            2.634609             -4.850103
| 42>   O                    : -2.856557            1.560374             -4.670585
| 43>   H                    : -2.979499            1.629369             -3.730284
| 44>   H                    : -1.816031            2.931660             -5.920906
| 45>   H                    : -2.354388            3.592985             -4.373275
| 46>   H                    : -1.068017            2.438966             -4.327261
| 47> *
| 48>
| 49> #Run DFT-D3 single point of the particle with dimer basis set
| 50> $new_job
| 51> %base "19-166_DFT_B"
| 52> ! wB97X-D3 def2-TZVP TIGHTSCF CHELPG PMODEL
| 53>
| 54> %scf
| 55> MaxIter 1000
| 56> end
| 57>
| 58> * xyz 0 1
| 59>   C                    : -1.181265            -1.693056            -5.197983
| 60>   O                    : -2.537102            -1.387165            -4.926656
| 61>   H                    : -2.571869            -0.459236            -5.177508
| 62>   H                    : -1.007342            -1.646664            -6.277704
| 63>   H                    : -0.509238            -0.915298            -4.700614
| 64>   H                    : -0.756636            -2.632401            -4.853080
| 65>   C                      -2.016624            2.634609             -4.850103
| 66>   O                      -2.856557            1.560374             -4.670585
| 67>   H                      -2.979499            1.629369             -3.730284
| 68>   H                      -1.816031            2.931660             -5.920906
| 69>   H                      -2.354388            3.592985             -4.373275
| 70>   H                      -1.068017            2.438966             -4.327261
| 71> *
| 72>
| 73>                          ****END OF INPUT****
 Total Charge           Charge          ....    0
 Multiplicity           Mult            ....    1
 Number of Electrons    NEL             ....   36
Dispersion correction           -0.001671130
FINAL SINGLE POINT ENERGY      -231.466673845930
Dispersion correction           -0.000229837
FINAL SINGLE POINT ENERGY      -115.730370184868

CARTESIAN COORDINATES (ANGSTROEM)
---------------------------------
  C     -1.181265   -1.693056   -5.197983
  O     -2.537102   -1.387165   -4.926656
  H     -2.571869   -0.459236   -5.177508
  H     -1.007342   -1.646664   -6.277704
  H     -0.509238   -0.915298   -4.700614
  H     -0.756636   -2.632401   -4.853080
  C     -2.016624    2.634609   -4.850103
  O     -2.856557    1.560374   -4.670585
  H     -2.979499    1.629369   -3.730284
  H     -1.816031    2.931660   -5.920906
  H     -2.354388    3.592985   -4.373275
  H     -1.068017    2.438966   -4.327261

 Multiplicity           Mult            ....    1
 Number of Electrons    NEL             ....   18
 Basis Dimension        Dim             ....  172

ORBITAL ENERGIES
----------------

  NO   OCC          E(Eh)            E(eV)
   0   2.0000     -19.237088      -523.4678
   1   2.0000     -10.318618      -280.7839
   2   2.0000      -1.161241       -31.5990
   3   2.0000      -0.786655       -21.4060
   4   2.0000      -0.622701       -16.9446
   5   2.0000      -0.545736       -14.8502
   6   2.0000      -0.530186       -14.4271
   7   2.0000      -0.440412       -11.9842
   8   2.0000      -0.371483       -10.1086
   9   0.0000       0.094639         2.5752
  10   0.0000       0.122873         3.3435
  11   0.0000       0.152518         4.1502
  12   0.0000       0.187541         5.1032
  13   0.0000       0.191216         5.2032

MULLIKEN ATOMIC CHARGES
-----------------------
   0 C :   -0.000587
   1 O :   -0.000749
   2 H :   -0.007150
   3 H :   -0.000177
   4 H :   -0.000981
   5 H :   -0.000126
   6 C :   -0.176262
   7 O :   -0.438830
   8 H :    0.317394
   9 H :    0.116329
  10 H :    0.092249
  11 H :    0.098891
Sum of atomic charges:   -0.0000000

LOEWDIN ATOMIC CHARGES
----------------------
   0 C :   -0.002461
   1 O :   -0.004554
   2 H :   -0.030497
   3 H :   -0.000051
   4 H :   -0.000673
   5 H :   -0.000036
   6 C :   -0.433475
   7 O :   -0.008240
   8 H :    0.176892
   9 H :    0.113641
  10 H :    0.096245
  11 H :    0.093210

  Mayer bond orders larger than 0.1
B(  6-C ,  7-O ) :   0.9906 B(  6-C ,  9-H ) :   0.9724 B(  6-C , 10-H ) :   0.9716
B(  6-C , 11-H ) :   0.9814 B(  7-O ,  8-H ) :   0.8983

Dispersion correction           -0.000214507
FINAL SINGLE POINT ENERGY      -115.728984105407

DIPOLE MOMENT
-------------
                                X             Y             Z
Electronic contribution:     -1.22972      -1.61472      -0.00661
Nuclear contribution   :      1.44350       2.04963       0.52451
                        -----------------------------------------
Total Dipole Moment    :      0.21378       0.43491       0.51790
                        -----------------------------------------
Magnitude (a.u.)       :      0.70928
Magnitude (Debye)      :      1.80284

Rotational constants in cm-1:     4.226005     0.869988     0.828805
Rotational constants in MHz : 126692.440124 26081.575537 24846.959674

                             ****ORCA TERMINATED NORMALLY****
TOTAL RUN TIME: 0 days 0 hours 0 minutes 51 seconds 60 msec
