                         Program Version 4.1.2  - RELEASE  -
|  1> #Run DFT-D3 single point of the dimer
|  2> ! wB97X-D3 def2-TZVP TIGHTSCF CHELPG PMODEL PAL8
|  3>
|  4> %base "5-1_DFT_AB"
|  5>
|  6> %scf
|  7> MaxIter 1000
|  8> end
|  9>
| 10> * xyz 0 1
| 11>   C                      7.637502             -1.565497            0.430449
| 12>   O                      6.279459             -1.591730            0.075538
| 13>   H                      6.138315             -2.503580            0.236057
| 14>   H                      8.043561             -0.510717            0.303914
| 15>   H                      7.798157             -1.853950            1.427963
| 16>   H                      8.171181             -2.284390            -0.145285
| 17>   C                      3.523408             -5.923778            2.070169
| 18>   O                      3.834441             -4.576411            1.836301
| 19>   H                      4.763971             -4.562166            1.509061
| 20>   H                      2.729272             -5.991882            2.856450
| 21>   H                      3.330591             -6.484672            1.252621
| 22>   H                      4.446997             -6.457884            2.510366
| 23> *
| 24>
| 25> #Run DFT-D3 single point of the molecule with dimer basis set
| 26> $new_job
| 27> %base "5-1_DFT_A"
| 28> ! wB97X-D3 def2-TZVP TIGHTSCF CHELPG PMODEL
| 29>
| 30> %scf
| 31> MaxIter 1000
| 32> end
| 33>
| 34> * xyz 0 1
| 35>   C                      7.637502             -1.565497            0.430449
| 36>   O                      6.279459             -1.591730            0.075538
| 37>   H                      6.138315             -2.503580            0.236057
| 38>   H                      8.043561             -0.510717            0.303914
| 39>   H                      7.798157             -1.853950            1.427963
| 40>   H                      8.171181             -2.284390            -0.145285
| 41>   C                    : 3.523408             -5.923778            2.070169
| 42>   O                    : 3.834441             -4.576411            1.836301
| 43>   H                    : 4.763971             -4.562166            1.509061
| 44>   H                    : 2.729272             -5.991882            2.856450
| 45>   H                    : 3.330591             -6.484672            1.252621
| 46>   H                    : 4.446997             -6.457884            2.510366
| 47> *
| 48>
| 49> #Run DFT-D3 single point of the particle with dimer basis set
| 50> $new_job
| 51> %base "5-1_DFT_B"
| 52> ! wB97X-D3 def2-TZVP TIGHTSCF CHELPG PMODEL
| 53>
| 54> %scf
| 55> MaxIter 1000
| 56> end
| 57>
| 58> * xyz 0 1
| 59>   C                    : 7.637502             -1.565497            0.430449
| 60>   O                    : 6.279459             -1.591730            0.075538
| 61>   H                    : 6.138315             -2.503580            0.236057
| 62>   H                    : 8.043561             -0.510717            0.303914
| 63>   H                    : 7.798157             -1.853950            1.427963
| 64>   H                    : 8.171181             -2.284390            -0.145285
| 65>   C                      3.523408             -5.923778            2.070169
| 66>   O                      3.834441             -4.576411            1.836301
| 67>   H                      4.763971             -4.562166            1.509061
| 68>   H                      2.729272             -5.991882            2.856450
| 69>   H                      3.330591             -6.484672            1.252621
| 70>   H                      4.446997             -6.457884            2.510366
| 71> *
| 72>
| 73>                          ****END OF INPUT****
 Total Charge           Charge          ....    0
 Multiplicity           Mult            ....    1
 Number of Electrons    NEL             ....   36
Dispersion correction           -0.000865966
FINAL SINGLE POINT ENERGY      -231.453044396331
Dispersion correction           -0.000194780
FINAL SINGLE POINT ENERGY      -115.728261589779

CARTESIAN COORDINATES (ANGSTROEM)
---------------------------------
  C      7.637502   -1.565497    0.430449
  O      6.279459   -1.591730    0.075538
  H      6.138315   -2.503580    0.236057
  H      8.043561   -0.510717    0.303914
  H      7.798157   -1.853950    1.427963
  H      8.171181   -2.284390   -0.145285
  C      3.523408   -5.923778    2.070169
  O      3.834441   -4.576411    1.836301
  H      4.763971   -4.562166    1.509061
  H      2.729272   -5.991882    2.856450
  H      3.330591   -6.484672    1.252621
  H      4.446997   -6.457884    2.510366

 Multiplicity           Mult            ....    1
 Number of Electrons    NEL             ....   18
 Basis Dimension        Dim             ....  172

ORBITAL ENERGIES
----------------

  NO   OCC          E(Eh)            E(eV)
   0   2.0000     -19.233762      -523.3773
   1   2.0000     -10.312176      -280.6086
   2   2.0000      -1.136999       -30.9393
   3   2.0000      -0.794010       -21.6061
   4   2.0000      -0.615239       -16.7415
   5   2.0000      -0.545424       -14.8417
   6   2.0000      -0.523976       -14.2581
   7   2.0000      -0.431273       -11.7355
   8   2.0000      -0.373464       -10.1625
   9   0.0000       0.078829         2.1450
  10   0.0000       0.115060         3.1309
  11   0.0000       0.148650         4.0450
  12   0.0000       0.186555         5.0764
  13   0.0000       0.192819         5.2469

MULLIKEN ATOMIC CHARGES
-----------------------
   0 C :   -0.000027
   1 O :    0.000089
   2 H :   -0.000820
   3 H :   -0.000001
   4 H :    0.000006
   5 H :   -0.000001
   6 C :   -0.171554
   7 O :   -0.469116
   8 H :    0.321289
   9 H :    0.116374
  10 H :    0.115351
  11 H :    0.088408
Sum of atomic charges:    0.0000000

LOEWDIN ATOMIC CHARGES
----------------------
   0 C :   -0.000067
   1 O :   -0.000049
   2 H :   -0.001171
   3 H :   -0.000002
   4 H :   -0.000014
   5 H :   -0.000001
   6 C :   -0.394048
   7 O :   -0.079482
   8 H :    0.187115
   9 H :    0.113290
  10 H :    0.071834
  11 H :    0.102596

  Mayer bond orders larger than 0.1
B(  6-C ,  7-O ) :   1.0073 B(  6-C ,  9-H ) :   0.9744 B(  6-C , 10-H ) :   0.9644
B(  6-C , 11-H ) :   0.9925 B(  7-O ,  8-H ) :   0.8920

Dispersion correction           -0.000230739
FINAL SINGLE POINT ENERGY      -115.726407043861

DIPOLE MOMENT
-------------
                                X             Y             Z
Electronic contribution:      0.07428       1.84052      -0.44328
Nuclear contribution   :      0.38439      -2.35198       0.31175
                        -----------------------------------------
Total Dipole Moment    :      0.45868      -0.51146      -0.13153
                        -----------------------------------------
Magnitude (a.u.)       :      0.69948
Magnitude (Debye)      :      1.77794

Rotational constants in cm-1:     4.242782     0.847651     0.804472
Rotational constants in MHz : 127195.415070 25411.950990 24117.462614

                             ****ORCA TERMINATED NORMALLY****
TOTAL RUN TIME: 0 days 0 hours 0 minutes 57 seconds 275 msec
