                         Program Version 4.1.2  - RELEASE  -
|  1> #Run DFT-D3 single point of the dimer
|  2> ! wB97X-D3 def2-TZVP TIGHTSCF CHELPG PMODEL PAL8
|  3>
|  4> %base "11-188_DFT_AB"
|  5>
|  6> %scf
|  7> MaxIter 1000
|  8> end
|  9>
| 10> * xyz 0 1
| 11>   C                      -1.928228            6.069338             -5.295415
| 12>   O                      -1.367924            5.245284             -4.308797
| 13>   H                      -0.973861            4.501413             -4.742806
| 14>   H                      -2.416954            6.939451             -4.797898
| 15>   H                      -1.215777            6.465010             -5.988270
| 16>   H                      -2.679642            5.518803             -5.874378
| 17>   C                      -1.021915            2.852459             -2.001228
| 18>   O                      -0.952008            4.277122             -1.661741
| 19>   H                      -1.236880            4.719434             -2.465130
| 20>   H                      -0.167043            2.540624             -2.682369
| 21>   H                      -1.096906            2.264152             -1.113842
| 22>   H                      -1.909074            2.582421             -2.660496
| 23> *
| 24>
| 25> #Run DFT-D3 single point of the molecule with dimer basis set
| 26> $new_job
| 27> %base "11-188_DFT_A"
| 28> ! wB97X-D3 def2-TZVP TIGHTSCF CHELPG PMODEL
| 29>
| 30> %scf
| 31> MaxIter 1000
| 32> end
| 33>
| 34> * xyz 0 1
| 35>   C                      -1.928228            6.069338             -5.295415
| 36>   O                      -1.367924            5.245284             -4.308797
| 37>   H                      -0.973861            4.501413             -4.742806
| 38>   H                      -2.416954            6.939451             -4.797898
| 39>   H                      -1.215777            6.465010             -5.988270
| 40>   H                      -2.679642            5.518803             -5.874378
| 41>   C                    : -1.021915            2.852459             -2.001228
| 42>   O                    : -0.952008            4.277122             -1.661741
| 43>   H                    : -1.236880            4.719434             -2.465130
| 44>   H                    : -0.167043            2.540624             -2.682369
| 45>   H                    : -1.096906            2.264152             -1.113842
| 46>   H                    : -1.909074            2.582421             -2.660496
| 47> *
| 48>
| 49> #Run DFT-D3 single point of the particle with dimer basis set
| 50> $new_job
| 51> %base "11-188_DFT_B"
| 52> ! wB97X-D3 def2-TZVP TIGHTSCF CHELPG PMODEL
| 53>
| 54> %scf
| 55> MaxIter 1000
| 56> end
| 57>
| 58> * xyz 0 1
| 59>   C                    : -1.928228            6.069338             -5.295415
| 60>   O                    : -1.367924            5.245284             -4.308797
| 61>   H                    : -0.973861            4.501413             -4.742806
| 62>   H                    : -2.416954            6.939451             -4.797898
| 63>   H                    : -1.215777            6.465010             -5.988270
| 64>   H                    : -2.679642            5.518803             -5.874378
| 65>   C                      -1.021915            2.852459             -2.001228
| 66>   O                      -0.952008            4.277122             -1.661741
| 67>   H                      -1.236880            4.719434             -2.465130
| 68>   H                      -0.167043            2.540624             -2.682369
| 69>   H                      -1.096906            2.264152             -1.113842
| 70>   H                      -1.909074            2.582421             -2.660496
| 71> *
| 72>
| 73>                          ****END OF INPUT****
 Total Charge           Charge          ....    0
 Multiplicity           Mult            ....    1
 Number of Electrons    NEL             ....   36
Dispersion correction           -0.001772851
FINAL SINGLE POINT ENERGY      -231.474473543500
Dispersion correction           -0.000230389
FINAL SINGLE POINT ENERGY      -115.736827673427

CARTESIAN COORDINATES (ANGSTROEM)
---------------------------------
  C     -1.928228    6.069338   -5.295415
  O     -1.367924    5.245284   -4.308797
  H     -0.973861    4.501413   -4.742806
  H     -2.416954    6.939451   -4.797898
  H     -1.215777    6.465010   -5.988270
  H     -2.679642    5.518803   -5.874378
  C     -1.021915    2.852459   -2.001228
  O     -0.952008    4.277122   -1.661741
  H     -1.236880    4.719434   -2.465130
  H     -0.167043    2.540624   -2.682369
  H     -1.096906    2.264152   -1.113842
  H     -1.909074    2.582421   -2.660496

 Multiplicity           Mult            ....    1
 Number of Electrons    NEL             ....   18
 Basis Dimension        Dim             ....  172

ORBITAL ENERGIES
----------------

  NO   OCC          E(Eh)            E(eV)
   0   2.0000     -19.234862      -523.4072
   1   2.0000     -10.324939      -280.9559
   2   2.0000      -1.125323       -30.6216
   3   2.0000      -0.793350       -21.5881
   4   2.0000      -0.603933       -16.4338
   5   2.0000      -0.534210       -14.5366
   6   2.0000      -0.514314       -13.9952
   7   2.0000      -0.446840       -12.1591
   8   2.0000      -0.374650       -10.1948
   9   0.0000       0.068778         1.8715
  10   0.0000       0.125400         3.4123
  11   0.0000       0.144158         3.9227
  12   0.0000       0.172730         4.7002
  13   0.0000       0.186137         5.0650

MULLIKEN ATOMIC CHARGES
-----------------------
   0 C :   -0.002150
   1 O :   -0.006610
   2 H :    0.000281
   3 H :    0.000077
   4 H :    0.000044
   5 H :    0.000041
   6 C :   -0.203442
   7 O :   -0.467301
   8 H :    0.318198
   9 H :    0.111993
  10 H :    0.138223
  11 H :    0.110648
Sum of atomic charges:   -0.0000000

LOEWDIN ATOMIC CHARGES
----------------------
   0 C :   -0.001648
   1 O :   -0.022015
   2 H :   -0.002920
   3 H :   -0.000082
   4 H :   -0.000045
   5 H :   -0.000042
   6 C :   -0.359590
   7 O :   -0.098569
   8 H :    0.175379
   9 H :    0.104580
  10 H :    0.101080
  11 H :    0.103871

  Mayer bond orders larger than 0.1
B(  6-C ,  7-O ) :   0.9874 B(  6-C ,  9-H ) :   0.9694 B(  6-C , 10-H ) :   0.9727
B(  6-C , 11-H ) :   0.9732 B(  7-O ,  8-H ) :   0.9060

Dispersion correction           -0.000271257
FINAL SINGLE POINT ENERGY      -115.730855530468

DIPOLE MOMENT
-------------
                                X             Y             Z
Electronic contribution:      0.17191       1.77458       0.75988
Nuclear contribution   :     -0.39460      -2.08782      -1.38517
                        -----------------------------------------
Total Dipole Moment    :     -0.22269      -0.31324      -0.62529
                        -----------------------------------------
Magnitude (a.u.)       :      0.73396
Magnitude (Debye)      :      1.86558

Rotational constants in cm-1:     4.167162     0.781159     0.750421
Rotational constants in MHz : 124928.383261 23418.564263 22497.049094

                             ****ORCA TERMINATED NORMALLY****
TOTAL RUN TIME: 0 days 0 hours 1 minutes 15 seconds 254 msec
