                         Program Version 4.1.2  - RELEASE  -
|  1> #Run DFT-D3 single point of the dimer
|  2> ! wB97X-D3 def2-TZVP TIGHTSCF CHELPG PMODEL PAL8
|  3>
|  4> %base "21-48_DFT_AB"
|  5>
|  6> %scf
|  7> MaxIter 1000
|  8> end
|  9>
| 10> * xyz 0 1
| 11>   C                      -4.571858            -8.509217            7.080362
| 12>   O                      -3.583468            -7.449682            7.394431
| 13>   H                      -3.572475            -6.902586            6.640899
| 14>   H                      -4.180799            -9.176255            6.298429
| 15>   H                      -4.673121            -9.129860            7.950470
| 16>   H                      -5.476760            -8.065264            6.898514
| 17>   C                      0.597741             -10.128383           4.659815
| 18>   O                      -0.503059            -9.294061            4.867789
| 19>   H                      -1.286352            -9.802885            4.534895
| 20>   H                      1.438923             -9.934266            5.355620
| 21>   H                      0.409642             -11.165661           4.757242
| 22>   H                      1.102582             -9.947251            3.697960
| 23> *
| 24>
| 25> #Run DFT-D3 single point of the molecule with dimer basis set
| 26> $new_job
| 27> %base "21-48_DFT_A"
| 28> ! wB97X-D3 def2-TZVP TIGHTSCF CHELPG PMODEL
| 29>
| 30> %scf
| 31> MaxIter 1000
| 32> end
| 33>
| 34> * xyz 0 1
| 35>   C                      -4.571858            -8.509217            7.080362
| 36>   O                      -3.583468            -7.449682            7.394431
| 37>   H                      -3.572475            -6.902586            6.640899
| 38>   H                      -4.180799            -9.176255            6.298429
| 39>   H                      -4.673121            -9.129860            7.950470
| 40>   H                      -5.476760            -8.065264            6.898514
| 41>   C                    : 0.597741             -10.128383           4.659815
| 42>   O                    : -0.503059            -9.294061            4.867789
| 43>   H                    : -1.286352            -9.802885            4.534895
| 44>   H                    : 1.438923             -9.934266            5.355620
| 45>   H                    : 0.409642             -11.165661           4.757242
| 46>   H                    : 1.102582             -9.947251            3.697960
| 47> *
| 48>
| 49> #Run DFT-D3 single point of the particle with dimer basis set
| 50> $new_job
| 51> %base "21-48_DFT_B"
| 52> ! wB97X-D3 def2-TZVP TIGHTSCF CHELPG PMODEL
| 53>
| 54> %scf
| 55> MaxIter 1000
| 56> end
| 57>
| 58> * xyz 0 1
| 59>   C                    : -4.571858            -8.509217            7.080362
| 60>   O                    : -3.583468            -7.449682            7.394431
| 61>   H                    : -3.572475            -6.902586            6.640899
| 62>   H                    : -4.180799            -9.176255            6.298429
| 63>   H                    : -4.673121            -9.129860            7.950470
| 64>   H                    : -5.476760            -8.065264            6.898514
| 65>   C                      0.597741             -10.128383           4.659815
| 66>   O                      -0.503059            -9.294061            4.867789
| 67>   H                      -1.286352            -9.802885            4.534895
| 68>   H                      1.438923             -9.934266            5.355620
| 69>   H                      0.409642             -11.165661           4.757242
| 70>   H                      1.102582             -9.947251            3.697960
| 71> *
| 72>
| 73>                          ****END OF INPUT****
 Total Charge           Charge          ....    0
 Multiplicity           Mult            ....    1
 Number of Electrons    NEL             ....   36
Dispersion correction           -0.000827953
FINAL SINGLE POINT ENERGY      -231.460982736384
Dispersion correction           -0.000238914
FINAL SINGLE POINT ENERGY      -115.729642436934

CARTESIAN COORDINATES (ANGSTROEM)
---------------------------------
  C     -4.571858   -8.509217    7.080362
  O     -3.583468   -7.449682    7.394431
  H     -3.572475   -6.902586    6.640899
  H     -4.180799   -9.176255    6.298429
  H     -4.673121   -9.129860    7.950470
  H     -5.476760   -8.065264    6.898514
  C      0.597741  -10.128383    4.659815
  O     -0.503059   -9.294061    4.867789
  H     -1.286352   -9.802885    4.534895
  H      1.438923   -9.934266    5.355620
  H      0.409642  -11.165661    4.757242
  H      1.102582   -9.947251    3.697960

 Multiplicity           Mult            ....    1
 Number of Electrons    NEL             ....   18
 Basis Dimension        Dim             ....  172

ORBITAL ENERGIES
----------------

  NO   OCC          E(Eh)            E(eV)
   0   2.0000     -19.237448      -523.4776
   1   2.0000     -10.309324      -280.5310
   2   2.0000      -1.139085       -30.9961
   3   2.0000      -0.794855       -21.6291
   4   2.0000      -0.614714       -16.7272
   5   2.0000      -0.541042       -14.7225
   6   2.0000      -0.528165       -14.3721
   7   2.0000      -0.435468       -11.8497
   8   2.0000      -0.372362       -10.1325
   9   0.0000       0.085549         2.3279
  10   0.0000       0.116155         3.1607
  11   0.0000       0.149480         4.0676
  12   0.0000       0.170753         4.6464
  13   0.0000       0.200923         5.4674

MULLIKEN ATOMIC CHARGES
-----------------------
   0 C :    0.000112
   1 O :   -0.000033
   2 H :   -0.000137
   3 H :   -0.000793
   4 H :    0.000030
   5 H :   -0.000040
   6 C :   -0.179162
   7 O :   -0.463866
   8 H :    0.320998
   9 H :    0.112751
  10 H :    0.111675
  11 H :    0.098464
Sum of atomic charges:    0.0000000

LOEWDIN ATOMIC CHARGES
----------------------
   0 C :   -0.000253
   1 O :   -0.000061
   2 H :   -0.000107
   3 H :   -0.000360
   4 H :   -0.000001
   5 H :   -0.000009
   6 C :   -0.411172
   7 O :   -0.073696
   8 H :    0.192972
   9 H :    0.109058
  10 H :    0.087944
  11 H :    0.095685

  Mayer bond orders larger than 0.1
B(  6-C ,  7-O ) :   1.0143 B(  6-C ,  9-H ) :   0.9747 B(  6-C , 10-H ) :   0.9786
B(  6-C , 11-H ) :   0.9767 B(  7-O ,  8-H ) :   0.8926

Dispersion correction           -0.000248587
FINAL SINGLE POINT ENERGY      -115.731852247453

DIPOLE MOMENT
-------------
                                X             Y             Z
Electronic contribution:     -1.52890       1.17984       0.35876
Nuclear contribution   :      1.45929      -1.83299      -0.62876
                        -----------------------------------------
Total Dipole Moment    :     -0.06961      -0.65316      -0.27000
                        -----------------------------------------
Magnitude (a.u.)       :      0.71018
Magnitude (Debye)      :      1.80514

Rotational constants in cm-1:     4.412525     0.837813     0.805253
Rotational constants in MHz : 132284.179559 25117.000175 24140.883063

                             ****ORCA TERMINATED NORMALLY****
TOTAL RUN TIME: 0 days 0 hours 0 minutes 54 seconds 979 msec
