                         Program Version 4.1.2  - RELEASE  -
|  1> #Run DFT-D3 single point of the dimer
|  2> ! wB97X-D3 def2-TZVP TIGHTSCF CHELPG PMODEL PAL8
|  3>
|  4> %base "6-172_DFT_AB"
|  5>
|  6> %scf
|  7> MaxIter 1000
|  8> end
|  9>
| 10> * xyz 0 1
| 11>   C                      6.824095             -4.085569            -8.586297
| 12>   O                      6.613971             -4.489802            -7.269020
| 13>   H                      6.635865             -3.771162            -6.595867
| 14>   H                      5.963133             -3.488712            -9.022146
| 15>   H                      7.700060             -3.488874            -8.759919
| 16>   H                      6.991725             -4.954480            -9.156936
| 17>   C                      7.155881             -8.393305            -8.018918
| 18>   O                      6.341864             -7.327575            -7.522887
| 19>   H                      6.588646             -6.480897            -7.857293
| 20>   H                      8.161152             -8.078132            -8.027653
| 21>   H                      7.060098             -9.355730            -7.427923
| 22>   H                      6.875067             -8.735039            -9.032250
| 23> *
| 24>
| 25> #Run DFT-D3 single point of the molecule with dimer basis set
| 26> $new_job
| 27> %base "6-172_DFT_A"
| 28> ! wB97X-D3 def2-TZVP TIGHTSCF CHELPG PMODEL
| 29>
| 30> %scf
| 31> MaxIter 1000
| 32> end
| 33>
| 34> * xyz 0 1
| 35>   C                      6.824095             -4.085569            -8.586297
| 36>   O                      6.613971             -4.489802            -7.269020
| 37>   H                      6.635865             -3.771162            -6.595867
| 38>   H                      5.963133             -3.488712            -9.022146
| 39>   H                      7.700060             -3.488874            -8.759919
| 40>   H                      6.991725             -4.954480            -9.156936
| 41>   C                    : 7.155881             -8.393305            -8.018918
| 42>   O                    : 6.341864             -7.327575            -7.522887
| 43>   H                    : 6.588646             -6.480897            -7.857293
| 44>   H                    : 8.161152             -8.078132            -8.027653
| 45>   H                    : 7.060098             -9.355730            -7.427923
| 46>   H                    : 6.875067             -8.735039            -9.032250
| 47> *
| 48>
| 49> #Run DFT-D3 single point of the particle with dimer basis set
| 50> $new_job
| 51> %base "6-172_DFT_B"
| 52> ! wB97X-D3 def2-TZVP TIGHTSCF CHELPG PMODEL
| 53>
| 54> %scf
| 55> MaxIter 1000
| 56> end
| 57>
| 58> * xyz 0 1
| 59>   C                    : 6.824095             -4.085569            -8.586297
| 60>   O                    : 6.613971             -4.489802            -7.269020
| 61>   H                    : 6.635865             -3.771162            -6.595867
| 62>   H                    : 5.963133             -3.488712            -9.022146
| 63>   H                    : 7.700060             -3.488874            -8.759919
| 64>   H                    : 6.991725             -4.954480            -9.156936
| 65>   C                      7.155881             -8.393305            -8.018918
| 66>   O                      6.341864             -7.327575            -7.522887
| 67>   H                      6.588646             -6.480897            -7.857293
| 68>   H                      8.161152             -8.078132            -8.027653
| 69>   H                      7.060098             -9.355730            -7.427923
| 70>   H                      6.875067             -8.735039            -9.032250
| 71> *
| 72>
| 73>                          ****END OF INPUT****
 Total Charge           Charge          ....    0
 Multiplicity           Mult            ....    1
 Number of Electrons    NEL             ....   36
Dispersion correction           -0.001697916
FINAL SINGLE POINT ENERGY      -231.465766930799
Dispersion correction           -0.000265631
FINAL SINGLE POINT ENERGY      -115.732870821271

CARTESIAN COORDINATES (ANGSTROEM)
---------------------------------
  C      6.824095   -4.085569   -8.586297
  O      6.613971   -4.489802   -7.269020
  H      6.635865   -3.771162   -6.595867
  H      5.963133   -3.488712   -9.022146
  H      7.700060   -3.488874   -8.759919
  H      6.991725   -4.954480   -9.156936
  C      7.155881   -8.393305   -8.018918
  O      6.341864   -7.327575   -7.522887
  H      6.588646   -6.480897   -7.857293
  H      8.161152   -8.078132   -8.027653
  H      7.060098   -9.355730   -7.427923
  H      6.875067   -8.735039   -9.032250

 Multiplicity           Mult            ....    1
 Number of Electrons    NEL             ....   18
 Basis Dimension        Dim             ....  172

ORBITAL ENERGIES
----------------

  NO   OCC          E(Eh)            E(eV)
   0   2.0000     -19.227899      -523.2177
   1   2.0000     -10.317308      -280.7482
   2   2.0000      -1.131855       -30.7994
   3   2.0000      -0.800223       -21.7752
   4   2.0000      -0.613040       -16.6817
   5   2.0000      -0.545256       -14.8372
   6   2.0000      -0.521918       -14.2021
   7   2.0000      -0.427374       -11.6294
   8   2.0000      -0.374039       -10.1781
   9   0.0000       0.072659         1.9772
  10   0.0000       0.132970         3.6183
  11   0.0000       0.152771         4.1571
  12   0.0000       0.163772         4.4565
  13   0.0000       0.193559         5.2670

MULLIKEN ATOMIC CHARGES
-----------------------
   0 C :    0.001499
   1 O :   -0.001222
   2 H :   -0.000231
   3 H :   -0.000184
   4 H :    0.000078
   5 H :   -0.004860
   6 C :   -0.156269
   7 O :   -0.479830
   8 H :    0.309655
   9 H :    0.112600
  10 H :    0.121190
  11 H :    0.097572
Sum of atomic charges:   -0.0000000

LOEWDIN ATOMIC CHARGES
----------------------
   0 C :   -0.009140
   1 O :   -0.012147
   2 H :   -0.000499
   3 H :   -0.000119
   4 H :   -0.000091
   5 H :   -0.005205
   6 C :   -0.369702
   7 O :   -0.068226
   8 H :    0.163911
   9 H :    0.088116
  10 H :    0.117348
  11 H :    0.095754

  Mayer bond orders larger than 0.1
B(  6-C ,  7-O ) :   0.9855 B(  6-C ,  9-H ) :   0.9834 B(  6-C , 10-H ) :   0.9713
B(  6-C , 11-H ) :   0.9741 B(  7-O ,  8-H ) :   0.9073

Dispersion correction           -0.000263570
FINAL SINGLE POINT ENERGY      -115.731572770747

DIPOLE MOMENT
-------------
                                X             Y             Z
Electronic contribution:     -1.04921       1.33036       0.72480
Nuclear contribution   :      1.56962      -1.23216      -1.14663
                        -----------------------------------------
Total Dipole Moment    :      0.52041       0.09820      -0.42184
                        -----------------------------------------
Magnitude (a.u.)       :      0.67706
Magnitude (Debye)      :      1.72095

Rotational constants in cm-1:     4.462238     0.804046     0.776618
Rotational constants in MHz : 133774.533598 24104.704965 23282.426269

                             ****ORCA TERMINATED NORMALLY****
TOTAL RUN TIME: 0 days 0 hours 1 minutes 8 seconds 243 msec
