                         Program Version 4.1.2  - RELEASE  -
|  1> #Run DFT-D3 single point of the dimer
|  2> ! wB97X-D3 def2-TZVP TIGHTSCF CHELPG PMODEL PAL8
|  3>
|  4> %base "4-120_DFT_AB"
|  5>
|  6> %scf
|  7> MaxIter 1000
|  8> end
|  9>
| 10> * xyz 0 1
| 11>   C                      3.525039             -9.013006            5.976572
| 12>   O                      4.752287             -9.411188            6.515313
| 13>   H                      4.589304             -9.839890            7.341963
| 14>   H                      2.971183             -8.294431            6.716489
| 15>   H                      3.600566             -8.576698            4.959692
| 16>   H                      2.900982             -9.866116            5.721810
| 17>   C                      7.115677             -9.288804            11.305643
| 18>   O                      6.247459             -9.013449            10.249449
| 19>   H                      5.675927             -9.783614            10.124594
| 20>   H                      7.001223             -8.476354            12.086517
| 21>   H                      6.899567             -10.239357           11.815961
| 22>   H                      8.149968             -9.395513            11.027282
| 23> *
| 24>
| 25> #Run DFT-D3 single point of the molecule with dimer basis set
| 26> $new_job
| 27> %base "4-120_DFT_A"
| 28> ! wB97X-D3 def2-TZVP TIGHTSCF CHELPG PMODEL
| 29>
| 30> %scf
| 31> MaxIter 1000
| 32> end
| 33>
| 34> * xyz 0 1
| 35>   C                      3.525039             -9.013006            5.976572
| 36>   O                      4.752287             -9.411188            6.515313
| 37>   H                      4.589304             -9.839890            7.341963
| 38>   H                      2.971183             -8.294431            6.716489
| 39>   H                      3.600566             -8.576698            4.959692
| 40>   H                      2.900982             -9.866116            5.721810
| 41>   C                    : 7.115677             -9.288804            11.305643
| 42>   O                    : 6.247459             -9.013449            10.249449
| 43>   H                    : 5.675927             -9.783614            10.124594
| 44>   H                    : 7.001223             -8.476354            12.086517
| 45>   H                    : 6.899567             -10.239357           11.815961
| 46>   H                    : 8.149968             -9.395513            11.027282
| 47> *
| 48>
| 49> #Run DFT-D3 single point of the particle with dimer basis set
| 50> $new_job
| 51> %base "4-120_DFT_B"
| 52> ! wB97X-D3 def2-TZVP TIGHTSCF CHELPG PMODEL
| 53>
| 54> %scf
| 55> MaxIter 1000
| 56> end
| 57>
| 58> * xyz 0 1
| 59>   C                    : 3.525039             -9.013006            5.976572
| 60>   O                    : 4.752287             -9.411188            6.515313
| 61>   H                    : 4.589304             -9.839890            7.341963
| 62>   H                    : 2.971183             -8.294431            6.716489
| 63>   H                    : 3.600566             -8.576698            4.959692
| 64>   H                    : 2.900982             -9.866116            5.721810
| 65>   C                      7.115677             -9.288804            11.305643
| 66>   O                      6.247459             -9.013449            10.249449
| 67>   H                      5.675927             -9.783614            10.124594
| 68>   H                      7.001223             -8.476354            12.086517
| 69>   H                      6.899567             -10.239357           11.815961
| 70>   H                      8.149968             -9.395513            11.027282
| 71> *
| 72>
| 73>                          ****END OF INPUT****
 Total Charge           Charge          ....    0
 Multiplicity           Mult            ....    1
 Number of Electrons    NEL             ....   36
Dispersion correction           -0.000900853
FINAL SINGLE POINT ENERGY      -231.462258757735
Dispersion correction           -0.000247679
FINAL SINGLE POINT ENERGY      -115.730076445186

CARTESIAN COORDINATES (ANGSTROEM)
---------------------------------
  C      3.525039   -9.013006    5.976572
  O      4.752287   -9.411188    6.515313
  H      4.589304   -9.839890    7.341963
  H      2.971183   -8.294431    6.716489
  H      3.600566   -8.576698    4.959692
  H      2.900982   -9.866116    5.721810
  C      7.115677   -9.288804   11.305643
  O      6.247459   -9.013449   10.249449
  H      5.675927   -9.783614   10.124594
  H      7.001223   -8.476354   12.086517
  H      6.899567  -10.239357   11.815961
  H      8.149968   -9.395513   11.027282

 Multiplicity           Mult            ....    1
 Number of Electrons    NEL             ....   18
 Basis Dimension        Dim             ....  172

ORBITAL ENERGIES
----------------

  NO   OCC          E(Eh)            E(eV)
   0   2.0000     -19.232313      -523.3379
   1   2.0000     -10.314299      -280.6664
   2   2.0000      -1.141964       -31.0744
   3   2.0000      -0.792871       -21.5751
   4   2.0000      -0.617961       -16.8156
   5   2.0000      -0.542982       -14.7753
   6   2.0000      -0.524833       -14.2814
   7   2.0000      -0.430161       -11.7053
   8   2.0000      -0.373825       -10.1723
   9   0.0000       0.086421         2.3516
  10   0.0000       0.113884         3.0989
  11   0.0000       0.147762         4.0208
  12   0.0000       0.184334         5.0160
  13   0.0000       0.193770         5.2727

MULLIKEN ATOMIC CHARGES
-----------------------
   0 C :    0.000154
   1 O :   -0.000023
   2 H :   -0.001376
   3 H :   -0.000042
   4 H :    0.000008
   5 H :   -0.000004
   6 C :   -0.172689
   7 O :   -0.464815
   8 H :    0.321391
   9 H :    0.106839
  10 H :    0.102042
  11 H :    0.108514
Sum of atomic charges:    0.0000000

LOEWDIN ATOMIC CHARGES
----------------------
   0 C :   -0.000026
   1 O :   -0.000190
   2 H :   -0.001093
   3 H :   -0.000008
   4 H :   -0.000001
   5 H :   -0.000001
   6 C :   -0.406881
   7 O :   -0.065885
   8 H :    0.176922
   9 H :    0.107942
  10 H :    0.096200
  11 H :    0.093021

  Mayer bond orders larger than 0.1
B(  6-C ,  7-O ) :   1.0154 B(  6-C ,  9-H ) :   0.9774 B(  6-C , 10-H ) :   0.9859
B(  6-C , 11-H ) :   0.9691 B(  7-O ,  8-H ) :   0.8952

Dispersion correction           -0.000250266
FINAL SINGLE POINT ENERGY      -115.733354651614

DIPOLE MOMENT
-------------
                                X             Y             Z
Electronic contribution:     -1.06135       0.48322      -1.51450
Nuclear contribution   :      1.01713      -1.12015       1.83337
                        -----------------------------------------
Total Dipole Moment    :     -0.04422      -0.63693       0.31887
                        -----------------------------------------
Magnitude (a.u.)       :      0.71366
Magnitude (Debye)      :      1.81399

Rotational constants in cm-1:     4.289692     0.841003     0.813142
Rotational constants in MHz : 128601.731329 25212.645047 24377.390968

                             ****ORCA TERMINATED NORMALLY****
TOTAL RUN TIME: 0 days 0 hours 1 minutes 27 seconds 6 msec
