                         Program Version 4.1.2  - RELEASE  -
|  1> #Run DFT-D3 single point of the dimer
|  2> ! wB97X-D3 def2-TZVP TIGHTSCF CHELPG PMODEL PAL8
|  3>
|  4> %base "7-30_DFT_AB"
|  5>
|  6> %scf
|  7> MaxIter 1000
|  8> end
|  9>
| 10> * xyz 0 1
| 11>   C                      0.666390             -0.715815            -0.420100
| 12>   O                      1.567490             0.321839             -0.143165
| 13>   H                      1.326093             1.086254             -0.696441
| 14>   H                      -0.316124            -0.427597            -0.014911
| 15>   H                      0.543968             -0.926248            -1.464179
| 16>   H                      1.024687             -1.624058            0.019191
| 17>   C                      0.951974             2.416142             4.191653
| 18>   O                      1.141761             2.891847             5.490232
| 19>   H                      1.060901             2.174047             6.127462
| 20>   H                      1.329369             3.066310             3.438177
| 21>   H                      1.284872             1.400295             3.955974
| 22>   H                      -0.073623            2.426151             3.974505
| 23> *
| 24>
| 25> #Run DFT-D3 single point of the molecule with dimer basis set
| 26> $new_job
| 27> %base "7-30_DFT_A"
| 28> ! wB97X-D3 def2-TZVP TIGHTSCF CHELPG PMODEL
| 29>
| 30> %scf
| 31> MaxIter 1000
| 32> end
| 33>
| 34> * xyz 0 1
| 35>   C                      0.666390             -0.715815            -0.420100
| 36>   O                      1.567490             0.321839             -0.143165
| 37>   H                      1.326093             1.086254             -0.696441
| 38>   H                      -0.316124            -0.427597            -0.014911
| 39>   H                      0.543968             -0.926248            -1.464179
| 40>   H                      1.024687             -1.624058            0.019191
| 41>   C                    : 0.951974             2.416142             4.191653
| 42>   O                    : 1.141761             2.891847             5.490232
| 43>   H                    : 1.060901             2.174047             6.127462
| 44>   H                    : 1.329369             3.066310             3.438177
| 45>   H                    : 1.284872             1.400295             3.955974
| 46>   H                    : -0.073623            2.426151             3.974505
| 47> *
| 48>
| 49> #Run DFT-D3 single point of the particle with dimer basis set
| 50> $new_job
| 51> %base "7-30_DFT_B"
| 52> ! wB97X-D3 def2-TZVP TIGHTSCF CHELPG PMODEL
| 53>
| 54> %scf
| 55> MaxIter 1000
| 56> end
| 57>
| 58> * xyz 0 1
| 59>   C                    : 0.666390             -0.715815            -0.420100
| 60>   O                    : 1.567490             0.321839             -0.143165
| 61>   H                    : 1.326093             1.086254             -0.696441
| 62>   H                    : -0.316124            -0.427597            -0.014911
| 63>   H                    : 0.543968             -0.926248            -1.464179
| 64>   H                    : 1.024687             -1.624058            0.019191
| 65>   C                      0.951974             2.416142             4.191653
| 66>   O                      1.141761             2.891847             5.490232
| 67>   H                      1.060901             2.174047             6.127462
| 68>   H                      1.329369             3.066310             3.438177
| 69>   H                      1.284872             1.400295             3.955974
| 70>   H                      -0.073623            2.426151             3.974505
| 71> *
| 72>
| 73>                          ****END OF INPUT****
 Total Charge           Charge          ....    0
 Multiplicity           Mult            ....    1
 Number of Electrons    NEL             ....   36
Dispersion correction           -0.000692395
FINAL SINGLE POINT ENERGY      -231.466918678146
Dispersion correction           -0.000225229
FINAL SINGLE POINT ENERGY      -115.735543980939

CARTESIAN COORDINATES (ANGSTROEM)
---------------------------------
  C      0.666390   -0.715815   -0.420100
  O      1.567490    0.321839   -0.143165
  H      1.326093    1.086254   -0.696441
  H     -0.316124   -0.427597   -0.014911
  H      0.543968   -0.926248   -1.464179
  H      1.024687   -1.624058    0.019191
  C      0.951974    2.416142    4.191653
  O      1.141761    2.891847    5.490232
  H      1.060901    2.174047    6.127462
  H      1.329369    3.066310    3.438177
  H      1.284872    1.400295    3.955974
  H     -0.073623    2.426151    3.974505

 Multiplicity           Mult            ....    1
 Number of Electrons    NEL             ....   18
 Basis Dimension        Dim             ....  172

ORBITAL ENERGIES
----------------

  NO   OCC          E(Eh)            E(eV)
   0   2.0000     -19.230676      -523.2933
   1   2.0000     -10.302423      -280.3432
   2   2.0000      -1.139476       -31.0067
   3   2.0000      -0.804090       -21.8804
   4   2.0000      -0.617613       -16.8061
   5   2.0000      -0.539761       -14.6876
   6   2.0000      -0.534920       -14.5559
   7   2.0000      -0.434107       -11.8126
   8   2.0000      -0.370311       -10.0767
   9   0.0000       0.082076         2.2334
  10   0.0000       0.117161         3.1881
  11   0.0000       0.145925         3.9708
  12   0.0000       0.167718         4.5638
  13   0.0000       0.188055         5.1172

MULLIKEN ATOMIC CHARGES
-----------------------
   0 C :   -0.000042
   1 O :    0.000006
   2 H :   -0.000005
   3 H :   -0.000005
   4 H :   -0.000001
   5 H :    0.000002
   6 C :   -0.159492
   7 O :   -0.476296
   8 H :    0.318223
   9 H :    0.116676
  10 H :    0.097180
  11 H :    0.103755
Sum of atomic charges:   -0.0000000

LOEWDIN ATOMIC CHARGES
----------------------
   0 C :   -0.000034
   1 O :   -0.000027
   2 H :   -0.000009
   3 H :   -0.000007
   4 H :   -0.000001
   5 H :   -0.000002
   6 C :   -0.396022
   7 O :   -0.062770
   8 H :    0.173284
   9 H :    0.102634
  10 H :    0.095666
  11 H :    0.087288

  Mayer bond orders larger than 0.1
B(  6-C ,  7-O ) :   1.0072 B(  6-C ,  9-H ) :   0.9743 B(  6-C , 10-H ) :   0.9771
B(  6-C , 11-H ) :   0.9840 B(  7-O ,  8-H ) :   0.8956

Dispersion correction           -0.000244381
FINAL SINGLE POINT ENERGY      -115.730825947694

DIPOLE MOMENT
-------------
                                X             Y             Z
Electronic contribution:      0.38273       0.73254       1.71170
Nuclear contribution   :     -0.52337      -1.37780      -1.82569
                        -----------------------------------------
Total Dipole Moment    :     -0.14064      -0.64526      -0.11399
                        -----------------------------------------
Magnitude (a.u.)       :      0.67018
Magnitude (Debye)      :      1.70345

Rotational constants in cm-1:     4.644534     0.843409     0.806625
Rotational constants in MHz : 139239.637807 25284.759907 24182.018323

                             ****ORCA TERMINATED NORMALLY****
TOTAL RUN TIME: 0 days 0 hours 0 minutes 59 seconds 277 msec
