                         Program Version 4.1.2  - RELEASE  -
|  1> #Run DFT-D3 single point of the dimer
|  2> ! wB97X-D3 def2-TZVP TIGHTSCF CHELPG PMODEL PAL8
|  3>
|  4> %base "8-114_DFT_AB"
|  5>
|  6> %scf
|  7> MaxIter 1000
|  8> end
|  9>
| 10> * xyz 0 1
| 11>   C                      -3.085407            1.212228             -6.857028
| 12>   O                      -4.014511            0.679533             -7.754818
| 13>   H                      -3.617017            -0.153410            -8.081807
| 14>   H                      -3.475457            2.195119             -6.416982
| 15>   H                      -2.699295            0.539996             -6.108891
| 16>   H                      -2.225274            1.472159             -7.430988
| 17>   C                      -6.920567            0.452519             -9.738635
| 18>   O                      -6.666961            1.375209             -8.650126
| 19>   H                      -5.783965            1.631873             -8.535064
| 20>   H                      -7.922376            0.489124             -10.091410
| 21>   H                      -6.326372            0.705669             -10.608614
| 22>   H                      -6.741449            -0.574719            -9.428028
| 23> *
| 24>
| 25> #Run DFT-D3 single point of the molecule with dimer basis set
| 26> $new_job
| 27> %base "8-114_DFT_A"
| 28> ! wB97X-D3 def2-TZVP TIGHTSCF CHELPG PMODEL
| 29>
| 30> %scf
| 31> MaxIter 1000
| 32> end
| 33>
| 34> * xyz 0 1
| 35>   C                      -3.085407            1.212228             -6.857028
| 36>   O                      -4.014511            0.679533             -7.754818
| 37>   H                      -3.617017            -0.153410            -8.081807
| 38>   H                      -3.475457            2.195119             -6.416982
| 39>   H                      -2.699295            0.539996             -6.108891
| 40>   H                      -2.225274            1.472159             -7.430988
| 41>   C                    : -6.920567            0.452519             -9.738635
| 42>   O                    : -6.666961            1.375209             -8.650126
| 43>   H                    : -5.783965            1.631873             -8.535064
| 44>   H                    : -7.922376            0.489124             -10.091410
| 45>   H                    : -6.326372            0.705669             -10.608614
| 46>   H                    : -6.741449            -0.574719            -9.428028
| 47> *
| 48>
| 49> #Run DFT-D3 single point of the particle with dimer basis set
| 50> $new_job
| 51> %base "8-114_DFT_B"
| 52> ! wB97X-D3 def2-TZVP TIGHTSCF CHELPG PMODEL
| 53>
| 54> %scf
| 55> MaxIter 1000
| 56> end
| 57>
| 58> * xyz 0 1
| 59>   C                    : -3.085407            1.212228             -6.857028
| 60>   O                    : -4.014511            0.679533             -7.754818
| 61>   H                    : -3.617017            -0.153410            -8.081807
| 62>   H                    : -3.475457            2.195119             -6.416982
| 63>   H                    : -2.699295            0.539996             -6.108891
| 64>   H                    : -2.225274            1.472159             -7.430988
| 65>   C                      -6.920567            0.452519             -9.738635
| 66>   O                      -6.666961            1.375209             -8.650126
| 67>   H                      -5.783965            1.631873             -8.535064
| 68>   H                      -7.922376            0.489124             -10.091410
| 69>   H                      -6.326372            0.705669             -10.608614
| 70>   H                      -6.741449            -0.574719            -9.428028
| 71> *
| 72>
| 73>                          ****END OF INPUT****
 Total Charge           Charge          ....    0
 Multiplicity           Mult            ....    1
 Number of Electrons    NEL             ....   36
Dispersion correction           -0.001636425
FINAL SINGLE POINT ENERGY      -231.466689198585
Dispersion correction           -0.000222222
FINAL SINGLE POINT ENERGY      -115.730961622627

CARTESIAN COORDINATES (ANGSTROEM)
---------------------------------
  C     -3.085407    1.212228   -6.857028
  O     -4.014511    0.679533   -7.754818
  H     -3.617017   -0.153410   -8.081807
  H     -3.475457    2.195119   -6.416982
  H     -2.699295    0.539996   -6.108891
  H     -2.225274    1.472159   -7.430988
  C     -6.920567    0.452519   -9.738635
  O     -6.666961    1.375209   -8.650126
  H     -5.783965    1.631873   -8.535064
  H     -7.922376    0.489124  -10.091410
  H     -6.326372    0.705669  -10.608614
  H     -6.741449   -0.574719   -9.428028

 Multiplicity           Mult            ....    1
 Number of Electrons    NEL             ....   18
 Basis Dimension        Dim             ....  172

ORBITAL ENERGIES
----------------

  NO   OCC          E(Eh)            E(eV)
   0   2.0000     -19.223831      -523.1070
   1   2.0000     -10.313136      -280.6347
   2   2.0000      -1.126789       -30.6615
   3   2.0000      -0.808219       -21.9927
   4   2.0000      -0.609776       -16.5929
   5   2.0000      -0.541715       -14.7408
   6   2.0000      -0.530477       -14.4350
   7   2.0000      -0.424942       -11.5633
   8   2.0000      -0.376603       -10.2479
   9   0.0000       0.074686         2.0323
  10   0.0000       0.130643         3.5550
  11   0.0000       0.146057         3.9744
  12   0.0000       0.168909         4.5963
  13   0.0000       0.197722         5.3803

MULLIKEN ATOMIC CHARGES
-----------------------
   0 C :   -0.003628
   1 O :   -0.005567
   2 H :   -0.000118
   3 H :    0.000065
   4 H :    0.000108
   5 H :    0.000138
   6 C :   -0.158936
   7 O :   -0.490121
   8 H :    0.313265
   9 H :    0.127143
  10 H :    0.109007
  11 H :    0.108644
Sum of atomic charges:   -0.0000000

LOEWDIN ATOMIC CHARGES
----------------------
   0 C :   -0.002163
   1 O :   -0.014977
   2 H :   -0.000945
   3 H :   -0.000162
   4 H :   -0.000043
   5 H :   -0.000050
   6 C :   -0.345529
   7 O :   -0.076529
   8 H :    0.143638
   9 H :    0.102267
  10 H :    0.097167
  11 H :    0.097326

  Mayer bond orders larger than 0.1
B(  6-C ,  7-O ) :   0.9879 B(  6-C ,  9-H ) :   0.9722 B(  6-C , 10-H ) :   0.9821
B(  6-C , 11-H ) :   0.9767 B(  7-O ,  8-H ) :   0.9038

Dispersion correction           -0.000269320
FINAL SINGLE POINT ENERGY      -115.731961237488

DIPOLE MOMENT
-------------
                                X             Y             Z
Electronic contribution:      0.18018       1.13235       1.36311
Nuclear contribution   :      0.27101      -1.35990      -1.79269
                        -----------------------------------------
Total Dipole Moment    :      0.45120      -0.22755      -0.42959
                        -----------------------------------------
Magnitude (a.u.)       :      0.66325
Magnitude (Debye)      :      1.68585

Rotational constants in cm-1:     4.604723     0.785860     0.769542
Rotational constants in MHz : 138046.136602 23559.482834 23070.293423

                             ****ORCA TERMINATED NORMALLY****
TOTAL RUN TIME: 0 days 0 hours 0 minutes 46 seconds 991 msec
