                         Program Version 4.1.2  - RELEASE  -
|  1> #Run DFT-D3 single point of the dimer
|  2> ! wB97X-D3 def2-TZVP TIGHTSCF CHELPG PMODEL PAL8
|  3>
|  4> %base "15-49_DFT_AB"
|  5>
|  6> %scf
|  7> MaxIter 1000
|  8> end
|  9>
| 10> * xyz 0 1
| 11>   C                      7.027536             3.700445             1.588677
| 12>   O                      7.121738             4.093266             0.247516
| 13>   H                      7.366341             3.333908             -0.299382
| 14>   H                      8.023769             3.471064             2.076743
| 15>   H                      6.544191             4.464693             2.197487
| 16>   H                      6.420623             2.848499             1.708700
| 17>   C                      8.601425             6.920076             1.637831
| 18>   O                      7.416930             6.742712             0.853105
| 19>   H                      7.440295             5.891707             0.379606
| 20>   H                      9.457461             6.865217             0.985946
| 21>   H                      8.621270             7.835848             2.165665
| 22>   H                      8.698329             6.067218             2.366144
| 23> *
| 24>
| 25> #Run DFT-D3 single point of the molecule with dimer basis set
| 26> $new_job
| 27> %base "15-49_DFT_A"
| 28> ! wB97X-D3 def2-TZVP TIGHTSCF CHELPG PMODEL
| 29>
| 30> %scf
| 31> MaxIter 1000
| 32> end
| 33>
| 34> * xyz 0 1
| 35>   C                      7.027536             3.700445             1.588677
| 36>   O                      7.121738             4.093266             0.247516
| 37>   H                      7.366341             3.333908             -0.299382
| 38>   H                      8.023769             3.471064             2.076743
| 39>   H                      6.544191             4.464693             2.197487
| 40>   H                      6.420623             2.848499             1.708700
| 41>   C                    : 8.601425             6.920076             1.637831
| 42>   O                    : 7.416930             6.742712             0.853105
| 43>   H                    : 7.440295             5.891707             0.379606
| 44>   H                    : 9.457461             6.865217             0.985946
| 45>   H                    : 8.621270             7.835848             2.165665
| 46>   H                    : 8.698329             6.067218             2.366144
| 47> *
| 48>
| 49> #Run DFT-D3 single point of the particle with dimer basis set
| 50> $new_job
| 51> %base "15-49_DFT_B"
| 52> ! wB97X-D3 def2-TZVP TIGHTSCF CHELPG PMODEL
| 53>
| 54> %scf
| 55> MaxIter 1000
| 56> end
| 57>
| 58> * xyz 0 1
| 59>   C                    : 7.027536             3.700445             1.588677
| 60>   O                    : 7.121738             4.093266             0.247516
| 61>   H                    : 7.366341             3.333908             -0.299382
| 62>   H                    : 8.023769             3.471064             2.076743
| 63>   H                    : 6.544191             4.464693             2.197487
| 64>   H                    : 6.420623             2.848499             1.708700
| 65>   C                      8.601425             6.920076             1.637831
| 66>   O                      7.416930             6.742712             0.853105
| 67>   H                      7.440295             5.891707             0.379606
| 68>   H                      9.457461             6.865217             0.985946
| 69>   H                      8.621270             7.835848             2.165665
| 70>   H                      8.698329             6.067218             2.366144
| 71> *
| 72>
| 73>                          ****END OF INPUT****
 Total Charge           Charge          ....    0
 Multiplicity           Mult            ....    1
 Number of Electrons    NEL             ....   36
Dispersion correction           -0.002244819
FINAL SINGLE POINT ENERGY      -231.476830501824
Dispersion correction           -0.000247625
FINAL SINGLE POINT ENERGY      -115.734815023657

CARTESIAN COORDINATES (ANGSTROEM)
---------------------------------
  C      7.027536    3.700445    1.588677
  O      7.121738    4.093266    0.247516
  H      7.366341    3.333908   -0.299382
  H      8.023769    3.471064    2.076743
  H      6.544191    4.464693    2.197487
  H      6.420623    2.848499    1.708700
  C      8.601425    6.920076    1.637831
  O      7.416930    6.742712    0.853105
  H      7.440295    5.891707    0.379606
  H      9.457461    6.865217    0.985946
  H      8.621270    7.835848    2.165665
  H      8.698329    6.067218    2.366144

 Multiplicity           Mult            ....    1
 Number of Electrons    NEL             ....   18
 Basis Dimension        Dim             ....  172

ORBITAL ENERGIES
----------------

  NO   OCC          E(Eh)            E(eV)
   0   2.0000     -19.230170      -523.2795
   1   2.0000     -10.313636      -280.6483
   2   2.0000      -1.126410       -30.6512
   3   2.0000      -0.798532       -21.7291
   4   2.0000      -0.605399       -16.4737
   5   2.0000      -0.538348       -14.6492
   6   2.0000      -0.535311       -14.5666
   7   2.0000      -0.432296       -11.7634
   8   2.0000      -0.371237       -10.1019
   9   0.0000       0.072651         1.9769
  10   0.0000       0.139281         3.7900
  11   0.0000       0.144653         3.9362
  12   0.0000       0.168634         4.5888
  13   0.0000       0.192210         5.2303

MULLIKEN ATOMIC CHARGES
-----------------------
   0 C :   -0.006150
   1 O :   -0.004755
   2 H :   -0.000321
   3 H :    0.000076
   4 H :   -0.003266
   5 H :   -0.000572
   6 C :   -0.164458
   7 O :   -0.477727
   8 H :    0.319585
   9 H :    0.108209
  10 H :    0.130728
  11 H :    0.098651
Sum of atomic charges:    0.0000000

LOEWDIN ATOMIC CHARGES
----------------------
   0 C :   -0.017409
   1 O :   -0.026470
   2 H :   -0.001163
   3 H :   -0.001390
   4 H :   -0.005415
   5 H :   -0.000233
   6 C :   -0.360125
   7 O :   -0.075523
   8 H :    0.190626
   9 H :    0.093241
  10 H :    0.100629
  11 H :    0.103231

  Mayer bond orders larger than 0.1
B(  6-C ,  7-O ) :   0.9918 B(  6-C ,  9-H ) :   0.9849 B(  6-C , 10-H ) :   0.9709
B(  6-C , 11-H ) :   0.9759 B(  7-O ,  8-H ) :   0.8954

Dispersion correction           -0.000240935
FINAL SINGLE POINT ENERGY      -115.734373798198

DIPOLE MOMENT
-------------
                                X             Y             Z
Electronic contribution:     -1.54064       0.07573      -0.90811
Nuclear contribution   :      2.05633      -0.50528       0.92857
                        -----------------------------------------
Total Dipole Moment    :      0.51569      -0.42955       0.02046
                        -----------------------------------------
Magnitude (a.u.)       :      0.67147
Magnitude (Debye)      :      1.70674

Rotational constants in cm-1:     4.329891     0.813484     0.784846
Rotational constants in MHz : 129806.855311 24387.637739 23529.084517

                             ****ORCA TERMINATED NORMALLY****
TOTAL RUN TIME: 0 days 0 hours 1 minutes 0 seconds 334 msec
