                         Program Version 4.1.2  - RELEASE  -
|  1> #Run DFT-D3 single point of the dimer
|  2> ! wB97X-D3 def2-TZVP TIGHTSCF CHELPG PMODEL PAL8
|  3>
|  4> %base "7-191_DFT_AB"
|  5>
|  6> %scf
|  7> MaxIter 1000
|  8> end
|  9>
| 10> * xyz 0 1
| 11>   C                      8.985296             -3.054821            8.696973
| 12>   O                      8.995016             -2.653601            7.377167
| 13>   H                      9.719916             -3.104390            6.964746
| 14>   H                      8.650019             -4.060848            8.822176
| 15>   H                      9.996094             -3.003890            9.103342
| 16>   H                      8.332179             -2.501358            9.316840
| 17>   C                      7.788554             -4.199389            3.523042
| 18>   O                      7.110312             -3.736970            4.686271
| 19>   H                      7.677281             -3.734452            5.428922
| 20>   H                      8.106648             -3.425837            2.875663
| 21>   H                      8.648913             -4.875439            3.708595
| 22>   H                      7.091599             -4.839618            2.976743
| 23> *
| 24>
| 25> #Run DFT-D3 single point of the molecule with dimer basis set
| 26> $new_job
| 27> %base "7-191_DFT_A"
| 28> ! wB97X-D3 def2-TZVP TIGHTSCF CHELPG PMODEL
| 29>
| 30> %scf
| 31> MaxIter 1000
| 32> end
| 33>
| 34> * xyz 0 1
| 35>   C                      8.985296             -3.054821            8.696973
| 36>   O                      8.995016             -2.653601            7.377167
| 37>   H                      9.719916             -3.104390            6.964746
| 38>   H                      8.650019             -4.060848            8.822176
| 39>   H                      9.996094             -3.003890            9.103342
| 40>   H                      8.332179             -2.501358            9.316840
| 41>   C                    : 7.788554             -4.199389            3.523042
| 42>   O                    : 7.110312             -3.736970            4.686271
| 43>   H                    : 7.677281             -3.734452            5.428922
| 44>   H                    : 8.106648             -3.425837            2.875663
| 45>   H                    : 8.648913             -4.875439            3.708595
| 46>   H                    : 7.091599             -4.839618            2.976743
| 47> *
| 48>
| 49> #Run DFT-D3 single point of the particle with dimer basis set
| 50> $new_job
| 51> %base "7-191_DFT_B"
| 52> ! wB97X-D3 def2-TZVP TIGHTSCF CHELPG PMODEL
| 53>
| 54> %scf
| 55> MaxIter 1000
| 56> end
| 57>
| 58> * xyz 0 1
| 59>   C                    : 8.985296             -3.054821            8.696973
| 60>   O                    : 8.995016             -2.653601            7.377167
| 61>   H                    : 9.719916             -3.104390            6.964746
| 62>   H                    : 8.650019             -4.060848            8.822176
| 63>   H                    : 9.996094             -3.003890            9.103342
| 64>   H                    : 8.332179             -2.501358            9.316840
| 65>   C                      7.788554             -4.199389            3.523042
| 66>   O                      7.110312             -3.736970            4.686271
| 67>   H                      7.677281             -3.734452            5.428922
| 68>   H                      8.106648             -3.425837            2.875663
| 69>   H                      8.648913             -4.875439            3.708595
| 70>   H                      7.091599             -4.839618            2.976743
| 71> *
| 72>
| 73>                          ****END OF INPUT****
 Total Charge           Charge          ....    0
 Multiplicity           Mult            ....    1
 Number of Electrons    NEL             ....   36
Dispersion correction           -0.001290787
FINAL SINGLE POINT ENERGY      -231.469689659519
Dispersion correction           -0.000211309
FINAL SINGLE POINT ENERGY      -115.733448441256

CARTESIAN COORDINATES (ANGSTROEM)
---------------------------------
  C      8.985296   -3.054821    8.696973
  O      8.995016   -2.653601    7.377167
  H      9.719916   -3.104390    6.964746
  H      8.650019   -4.060848    8.822176
  H      9.996094   -3.003890    9.103342
  H      8.332179   -2.501358    9.316840
  C      7.788554   -4.199389    3.523042
  O      7.110312   -3.736970    4.686271
  H      7.677281   -3.734452    5.428922
  H      8.106648   -3.425837    2.875663
  H      8.648913   -4.875439    3.708595
  H      7.091599   -4.839618    2.976743

 Multiplicity           Mult            ....    1
 Number of Electrons    NEL             ....   18
 Basis Dimension        Dim             ....  172

ORBITAL ENERGIES
----------------

  NO   OCC          E(Eh)            E(eV)
   0   2.0000     -19.228078      -523.2226
   1   2.0000     -10.311587      -280.5925
   2   2.0000      -1.136477       -30.9251
   3   2.0000      -0.802668       -21.8417
   4   2.0000      -0.614476       -16.7207
   5   2.0000      -0.545567       -14.8456
   6   2.0000      -0.522160       -14.2087
   7   2.0000      -0.430760       -11.7216
   8   2.0000      -0.377488       -10.2720
   9   0.0000       0.072739         1.9793
  10   0.0000       0.124770         3.3952
  11   0.0000       0.150944         4.1074
  12   0.0000       0.176180         4.7941
  13   0.0000       0.192635         5.2419

MULLIKEN ATOMIC CHARGES
-----------------------
   0 C :   -0.000035
   1 O :   -0.000766
   2 H :   -0.000989
   3 H :   -0.000106
   4 H :    0.000007
   5 H :    0.000021
   6 C :   -0.165783
   7 O :   -0.475426
   8 H :    0.310500
   9 H :    0.112711
  10 H :    0.104525
  11 H :    0.115339
Sum of atomic charges:    0.0000000

LOEWDIN ATOMIC CHARGES
----------------------
   0 C :   -0.000514
   1 O :   -0.003417
   2 H :   -0.001448
   3 H :   -0.000072
   4 H :   -0.000006
   5 H :   -0.000006
   6 C :   -0.373441
   7 O :   -0.066950
   8 H :    0.149948
   9 H :    0.089151
  10 H :    0.100406
  11 H :    0.106350

  Mayer bond orders larger than 0.1
B(  6-C ,  7-O ) :   0.9977 B(  6-C ,  9-H ) :   0.9705 B(  6-C , 10-H ) :   0.9787
B(  6-C , 11-H ) :   0.9800 B(  7-O ,  8-H ) :   0.9089

Dispersion correction           -0.000263297
FINAL SINGLE POINT ENERGY      -115.733798302905

DIPOLE MOMENT
-------------
                                X             Y             Z
Electronic contribution:     -0.91545       0.72409       1.44388
Nuclear contribution   :      1.56931      -0.92681      -1.43517
                        -----------------------------------------
Total Dipole Moment    :      0.65386      -0.20272       0.00871
                        -----------------------------------------
Magnitude (a.u.)       :      0.68462
Magnitude (Debye)      :      1.74016

Rotational constants in cm-1:     4.493681     0.813676     0.789626
Rotational constants in MHz : 134717.154200 24393.406897 23672.378342

                             ****ORCA TERMINATED NORMALLY****
TOTAL RUN TIME: 0 days 0 hours 1 minutes 11 seconds 714 msec
