                         Program Version 4.1.2  - RELEASE  -
|  1> #Run DFT-D3 single point of the dimer
|  2> ! wB97X-D3 def2-TZVP TIGHTSCF CHELPG PMODEL PAL8
|  3>
|  4> %base "8-131_DFT_AB"
|  5>
|  6> %scf
|  7> MaxIter 1000
|  8> end
|  9>
| 10> * xyz 0 1
| 11>   C                      -5.209357            -7.911210            -7.642439
| 12>   O                      -4.306561            -7.095879            -8.320891
| 13>   H                      -4.088143            -7.384407            -9.210955
| 14>   H                      -6.268734            -7.795851            -7.834305
| 15>   H                      -4.851726            -9.038732            -7.718675
| 16>   H                      -5.098145            -7.774347            -6.550540
| 17>   C                      -1.046311            -5.840517            -7.392696
| 18>   O                      -2.034853            -5.649059            -8.417081
| 19>   H                      -2.908656            -5.826258            -8.049725
| 20>   H                      -0.002871            -5.776610            -7.787120
| 21>   H                      -1.114569            -5.024084            -6.616437
| 22>   H                      -1.078801            -6.794849            -6.821808
| 23> *
| 24>
| 25> #Run DFT-D3 single point of the molecule with dimer basis set
| 26> $new_job
| 27> %base "8-131_DFT_A"
| 28> ! wB97X-D3 def2-TZVP TIGHTSCF CHELPG PMODEL
| 29>
| 30> %scf
| 31> MaxIter 1000
| 32> end
| 33>
| 34> * xyz 0 1
| 35>   C                      -5.209357            -7.911210            -7.642439
| 36>   O                      -4.306561            -7.095879            -8.320891
| 37>   H                      -4.088143            -7.384407            -9.210955
| 38>   H                      -6.268734            -7.795851            -7.834305
| 39>   H                      -4.851726            -9.038732            -7.718675
| 40>   H                      -5.098145            -7.774347            -6.550540
| 41>   C                    : -1.046311            -5.840517            -7.392696
| 42>   O                    : -2.034853            -5.649059            -8.417081
| 43>   H                    : -2.908656            -5.826258            -8.049725
| 44>   H                    : -0.002871            -5.776610            -7.787120
| 45>   H                    : -1.114569            -5.024084            -6.616437
| 46>   H                    : -1.078801            -6.794849            -6.821808
| 47> *
| 48>
| 49> #Run DFT-D3 single point of the particle with dimer basis set
| 50> $new_job
| 51> %base "8-131_DFT_B"
| 52> ! wB97X-D3 def2-TZVP TIGHTSCF CHELPG PMODEL
| 53>
| 54> %scf
| 55> MaxIter 1000
| 56> end
| 57>
| 58> * xyz 0 1
| 59>   C                    : -5.209357            -7.911210            -7.642439
| 60>   O                    : -4.306561            -7.095879            -8.320891
| 61>   H                    : -4.088143            -7.384407            -9.210955
| 62>   H                    : -6.268734            -7.795851            -7.834305
| 63>   H                    : -4.851726            -9.038732            -7.718675
| 64>   H                    : -5.098145            -7.774347            -6.550540
| 65>   C                      -1.046311            -5.840517            -7.392696
| 66>   O                      -2.034853            -5.649059            -8.417081
| 67>   H                      -2.908656            -5.826258            -8.049725
| 68>   H                      -0.002871            -5.776610            -7.787120
| 69>   H                      -1.114569            -5.024084            -6.616437
| 70>   H                      -1.078801            -6.794849            -6.821808
| 71> *
| 72>
| 73>                          ****END OF INPUT****
 Total Charge           Charge          ....    0
 Multiplicity           Mult            ....    1
 Number of Electrons    NEL             ....   36
Dispersion correction           -0.001630406
FINAL SINGLE POINT ENERGY      -231.469046737259
Dispersion correction           -0.000276838
FINAL SINGLE POINT ENERGY      -115.728500233145

CARTESIAN COORDINATES (ANGSTROEM)
---------------------------------
  C     -5.209357   -7.911210   -7.642439
  O     -4.306561   -7.095879   -8.320891
  H     -4.088143   -7.384407   -9.210955
  H     -6.268734   -7.795851   -7.834305
  H     -4.851726   -9.038732   -7.718675
  H     -5.098145   -7.774347   -6.550540
  C     -1.046311   -5.840517   -7.392696
  O     -2.034853   -5.649059   -8.417081
  H     -2.908656   -5.826258   -8.049725
  H     -0.002871   -5.776610   -7.787120
  H     -1.114569   -5.024084   -6.616437
  H     -1.078801   -6.794849   -6.821808

 Multiplicity           Mult            ....    1
 Number of Electrons    NEL             ....   18
 Basis Dimension        Dim             ....  172

ORBITAL ENERGIES
----------------

  NO   OCC          E(Eh)            E(eV)
   0   2.0000     -19.236501      -523.4518
   1   2.0000     -10.324163      -280.9348
   2   2.0000      -1.130838       -30.7717
   3   2.0000      -0.793221       -21.5846
   4   2.0000      -0.609100       -16.5744
   5   2.0000      -0.531391       -14.4599
   6   2.0000      -0.523909       -14.2563
   7   2.0000      -0.434987       -11.8366
   8   2.0000      -0.375912       -10.2291
   9   0.0000       0.073201         1.9919
  10   0.0000       0.129774         3.5313
  11   0.0000       0.143046         3.8925
  12   0.0000       0.174868         4.7584
  13   0.0000       0.187725         5.1083

MULLIKEN ATOMIC CHARGES
-----------------------
   0 C :   -0.001999
   1 O :   -0.006633
   2 H :   -0.003246
   3 H :    0.000010
   4 H :    0.000096
   5 H :    0.000036
   6 C :   -0.184413
   7 O :   -0.459007
   8 H :    0.317791
   9 H :    0.125223
  10 H :    0.104650
  11 H :    0.107494
Sum of atomic charges:    0.0000000

LOEWDIN ATOMIC CHARGES
----------------------
   0 C :   -0.002233
   1 O :   -0.025601
   2 H :   -0.005746
   3 H :   -0.000055
   4 H :   -0.000042
   5 H :   -0.000149
   6 C :   -0.384849
   7 O :   -0.072691
   8 H :    0.181150
   9 H :    0.113310
  10 H :    0.099504
  11 H :    0.097402

  Mayer bond orders larger than 0.1
B(  6-C ,  7-O ) :   1.0045 B(  6-C ,  9-H ) :   0.9715 B(  6-C , 10-H ) :   0.9802
B(  6-C , 11-H ) :   0.9643 B(  7-O ,  8-H ) :   0.8957

Dispersion correction           -0.000282364
FINAL SINGLE POINT ENERGY      -115.734051452255

DIPOLE MOMENT
-------------
                                X             Y             Z
Electronic contribution:     -1.22128       0.21687      -1.51509
Nuclear contribution   :      1.09119      -0.40629       2.15425
                        -----------------------------------------
Total Dipole Moment    :     -0.13009      -0.18942       0.63916
                        -----------------------------------------
Magnitude (a.u.)       :      0.67921
Magnitude (Debye)      :      1.72643

Rotational constants in cm-1:     4.276230     0.792139     0.765639
Rotational constants in MHz : 128198.135437 23747.724328 22953.281843

                             ****ORCA TERMINATED NORMALLY****
TOTAL RUN TIME: 0 days 0 hours 0 minutes 46 seconds 921 msec
