                         Program Version 4.1.2  - RELEASE  -
|  1> #Run DFT-D3 single point of the dimer
|  2> ! wB97X-D3 def2-TZVP TIGHTSCF CHELPG PMODEL PAL8
|  3>
|  4> %base "17-102_DFT_AB"
|  5>
|  6> %scf
|  7> MaxIter 1000
|  8> end
|  9>
| 10> * xyz 0 1
| 11>   C                      -3.510231            -1.086601            -3.537600
| 12>   O                      -4.343705            -1.752611            -4.437602
| 13>   H                      -5.224240            -1.403687            -4.477860
| 14>   H                      -4.049414            -0.835512            -2.615135
| 15>   H                      -2.571821            -1.682410            -3.278911
| 16>   H                      -3.190376            -0.068218            -3.952758
| 17>   C                      -5.611025            -4.715949            -7.451382
| 18>   O                      -5.543660            -5.230908            -6.116349
| 19>   H                      -6.192667            -4.679153            -5.690467
| 20>   H                      -4.662600            -5.000865            -8.036909
| 21>   H                      -6.562087            -4.983999            -7.957618
| 22>   H                      -5.580742            -3.587623            -7.504509
| 23> *
| 24>
| 25> #Run DFT-D3 single point of the molecule with dimer basis set
| 26> $new_job
| 27> %base "17-102_DFT_A"
| 28> ! wB97X-D3 def2-TZVP TIGHTSCF CHELPG PMODEL
| 29>
| 30> %scf
| 31> MaxIter 1000
| 32> end
| 33>
| 34> * xyz 0 1
| 35>   C                      -3.510231            -1.086601            -3.537600
| 36>   O                      -4.343705            -1.752611            -4.437602
| 37>   H                      -5.224240            -1.403687            -4.477860
| 38>   H                      -4.049414            -0.835512            -2.615135
| 39>   H                      -2.571821            -1.682410            -3.278911
| 40>   H                      -3.190376            -0.068218            -3.952758
| 41>   C                    : -5.611025            -4.715949            -7.451382
| 42>   O                    : -5.543660            -5.230908            -6.116349
| 43>   H                    : -6.192667            -4.679153            -5.690467
| 44>   H                    : -4.662600            -5.000865            -8.036909
| 45>   H                    : -6.562087            -4.983999            -7.957618
| 46>   H                    : -5.580742            -3.587623            -7.504509
| 47> *
| 48>
| 49> #Run DFT-D3 single point of the particle with dimer basis set
| 50> $new_job
| 51> %base "17-102_DFT_B"
| 52> ! wB97X-D3 def2-TZVP TIGHTSCF CHELPG PMODEL
| 53>
| 54> %scf
| 55> MaxIter 1000
| 56> end
| 57>
| 58> * xyz 0 1
| 59>   C                    : -3.510231            -1.086601            -3.537600
| 60>   O                    : -4.343705            -1.752611            -4.437602
| 61>   H                    : -5.224240            -1.403687            -4.477860
| 62>   H                    : -4.049414            -0.835512            -2.615135
| 63>   H                    : -2.571821            -1.682410            -3.278911
| 64>   H                    : -3.190376            -0.068218            -3.952758
| 65>   C                      -5.611025            -4.715949            -7.451382
| 66>   O                      -5.543660            -5.230908            -6.116349
| 67>   H                      -6.192667            -4.679153            -5.690467
| 68>   H                      -4.662600            -5.000865            -8.036909
| 69>   H                      -6.562087            -4.983999            -7.957618
| 70>   H                      -5.580742            -3.587623            -7.504509
| 71> *
| 72>
| 73>                          ****END OF INPUT****
 Total Charge           Charge          ....    0
 Multiplicity           Mult            ....    1
 Number of Electrons    NEL             ....   36
Dispersion correction           -0.000969273
FINAL SINGLE POINT ENERGY      -231.462084307815
Dispersion correction           -0.000257141
FINAL SINGLE POINT ENERGY      -115.732255913096

CARTESIAN COORDINATES (ANGSTROEM)
---------------------------------
  C     -3.510231   -1.086601   -3.537600
  O     -4.343705   -1.752611   -4.437602
  H     -5.224240   -1.403687   -4.477860
  H     -4.049414   -0.835512   -2.615135
  H     -2.571821   -1.682410   -3.278911
  H     -3.190376   -0.068218   -3.952758
  C     -5.611025   -4.715949   -7.451382
  O     -5.543660   -5.230908   -6.116349
  H     -6.192667   -4.679153   -5.690467
  H     -4.662600   -5.000865   -8.036909
  H     -6.562087   -4.983999   -7.957618
  H     -5.580742   -3.587623   -7.504509

 Multiplicity           Mult            ....    1
 Number of Electrons    NEL             ....   18
 Basis Dimension        Dim             ....  172

ORBITAL ENERGIES
----------------

  NO   OCC          E(Eh)            E(eV)
   0   2.0000     -19.235844      -523.4339
   1   2.0000     -10.327088      -281.0144
   2   2.0000      -1.140004       -31.0211
   3   2.0000      -0.786259       -21.3952
   4   2.0000      -0.609427       -16.5834
   5   2.0000      -0.540152       -14.6983
   6   2.0000      -0.515388       -14.0244
   7   2.0000      -0.440656       -11.9909
   8   2.0000      -0.376940       -10.2571
   9   0.0000       0.080954         2.2029
  10   0.0000       0.112571         3.0632
  11   0.0000       0.149798         4.0762
  12   0.0000       0.166818         4.5393
  13   0.0000       0.192600         5.2409

MULLIKEN ATOMIC CHARGES
-----------------------
   0 C :   -0.000190
   1 O :   -0.000265
   2 H :   -0.000183
   3 H :    0.000009
   4 H :    0.000007
   5 H :    0.000002
   6 C :   -0.199897
   7 O :   -0.455273
   8 H :    0.313702
   9 H :    0.124600
  10 H :    0.111967
  11 H :    0.105521
Sum of atomic charges:    0.0000000

LOEWDIN ATOMIC CHARGES
----------------------
   0 C :   -0.000062
   1 O :   -0.000433
   2 H :   -0.000172
   3 H :   -0.000000
   4 H :   -0.000002
   5 H :   -0.000001
   6 C :   -0.396630
   7 O :   -0.083477
   8 H :    0.166689
   9 H :    0.119270
  10 H :    0.096855
  11 H :    0.097964

  Mayer bond orders larger than 0.1
B(  6-C ,  7-O ) :   0.9990 B(  6-C ,  9-H ) :   0.9710 B(  6-C , 10-H ) :   0.9686
B(  6-C , 11-H ) :   0.9728 B(  7-O ,  8-H ) :   0.9044

Dispersion correction           -0.000249577
FINAL SINGLE POINT ENERGY      -115.730200881659

DIPOLE MOMENT
-------------
                                X             Y             Z
Electronic contribution:      0.16029      -0.90785       1.74668
Nuclear contribution   :     -0.57981       1.46286      -1.98674
                        -----------------------------------------
Total Dipole Moment    :     -0.41953       0.55501      -0.24005
                        -----------------------------------------
Magnitude (a.u.)       :      0.73598
Magnitude (Debye)      :      1.87071

Rotational constants in cm-1:     4.074301     0.812459     0.779030
Rotational constants in MHz : 122144.477054 24356.897093 23354.740782

                             ****ORCA TERMINATED NORMALLY****
TOTAL RUN TIME: 0 days 0 hours 1 minutes 3 seconds 765 msec
