                         Program Version 4.1.2  - RELEASE  -
|  1> #Run DFT-D3 single point of the dimer
|  2> ! wB97X-D3 def2-TZVP TIGHTSCF CHELPG PMODEL PAL8
|  3>
|  4> %base "20-162_DFT_AB"
|  5>
|  6> %scf
|  7> MaxIter 1000
|  8> end
|  9>
| 10> * xyz 0 1
| 11>   C                      -6.714063            5.350536             4.090886
| 12>   O                      -7.999713            4.915713             3.661961
| 13>   H                      -7.853763            4.051714             3.187885
| 14>   H                      -5.999717            4.604636             4.133295
| 15>   H                      -6.266902            6.020050             3.367942
| 16>   H                      -6.759302            5.873254             5.050062
| 17>   C                      -6.664363            1.798460             3.947455
| 18>   O                      -7.527145            2.065606             2.932803
| 19>   H                      -7.923853            1.266214             2.581502
| 20>   H                      -5.749684            2.409529             3.868021
| 21>   H                      -7.079226            2.109862             4.910229
| 22>   H                      -6.449338            0.714370             3.869005
| 23> *
| 24>
| 25> #Run DFT-D3 single point of the molecule with dimer basis set
| 26> $new_job
| 27> %base "20-162_DFT_A"
| 28> ! wB97X-D3 def2-TZVP TIGHTSCF CHELPG PMODEL
| 29>
| 30> %scf
| 31> MaxIter 1000
| 32> end
| 33>
| 34> * xyz 0 1
| 35>   C                      -6.714063            5.350536             4.090886
| 36>   O                      -7.999713            4.915713             3.661961
| 37>   H                      -7.853763            4.051714             3.187885
| 38>   H                      -5.999717            4.604636             4.133295
| 39>   H                      -6.266902            6.020050             3.367942
| 40>   H                      -6.759302            5.873254             5.050062
| 41>   C                    : -6.664363            1.798460             3.947455
| 42>   O                    : -7.527145            2.065606             2.932803
| 43>   H                    : -7.923853            1.266214             2.581502
| 44>   H                    : -5.749684            2.409529             3.868021
| 45>   H                    : -7.079226            2.109862             4.910229
| 46>   H                    : -6.449338            0.714370             3.869005
| 47> *
| 48>
| 49> #Run DFT-D3 single point of the particle with dimer basis set
| 50> $new_job
| 51> %base "20-162_DFT_B"
| 52> ! wB97X-D3 def2-TZVP TIGHTSCF CHELPG PMODEL
| 53>
| 54> %scf
| 55> MaxIter 1000
| 56> end
| 57>
| 58> * xyz 0 1
| 59>   C                    : -6.714063            5.350536             4.090886
| 60>   O                    : -7.999713            4.915713             3.661961
| 61>   H                    : -7.853763            4.051714             3.187885
| 62>   H                    : -5.999717            4.604636             4.133295
| 63>   H                    : -6.266902            6.020050             3.367942
| 64>   H                    : -6.759302            5.873254             5.050062
| 65>   C                      -6.664363            1.798460             3.947455
| 66>   O                      -7.527145            2.065606             2.932803
| 67>   H                      -7.923853            1.266214             2.581502
| 68>   H                      -5.749684            2.409529             3.868021
| 69>   H                      -7.079226            2.109862             4.910229
| 70>   H                      -6.449338            0.714370             3.869005
| 71> *
| 72>
| 73>                          ****END OF INPUT****
 Total Charge           Charge          ....    0
 Multiplicity           Mult            ....    1
 Number of Electrons    NEL             ....   36
Dispersion correction           -0.002189512
FINAL SINGLE POINT ENERGY      -231.468337340436
Dispersion correction           -0.000243042
FINAL SINGLE POINT ENERGY      -115.730761248897

CARTESIAN COORDINATES (ANGSTROEM)
---------------------------------
  C     -6.714063    5.350536    4.090886
  O     -7.999713    4.915713    3.661961
  H     -7.853763    4.051714    3.187885
  H     -5.999717    4.604636    4.133295
  H     -6.266902    6.020050    3.367942
  H     -6.759302    5.873254    5.050062
  C     -6.664363    1.798460    3.947455
  O     -7.527145    2.065606    2.932803
  H     -7.923853    1.266214    2.581502
  H     -5.749684    2.409529    3.868021
  H     -7.079226    2.109862    4.910229
  H     -6.449338    0.714370    3.869005

 Multiplicity           Mult            ....    1
 Number of Electrons    NEL             ....   18
 Basis Dimension        Dim             ....  172

ORBITAL ENERGIES
----------------

  NO   OCC          E(Eh)            E(eV)
   0   2.0000     -19.226124      -523.1694
   1   2.0000     -10.311148      -280.5806
   2   2.0000      -1.152513       -31.3615
   3   2.0000      -0.792650       -21.5691
   4   2.0000      -0.618815       -16.8388
   5   2.0000      -0.551795       -15.0151
   6   2.0000      -0.538442       -14.6518
   7   2.0000      -0.421948       -11.4818
   8   2.0000      -0.366470        -9.9722
   9   0.0000       0.095056         2.5866
  10   0.0000       0.119428         3.2498
  11   0.0000       0.160277         4.3613
  12   0.0000       0.185973         5.0606
  13   0.0000       0.193242         5.2584

MULLIKEN ATOMIC CHARGES
-----------------------
   0 C :    0.000481
   1 O :   -0.000055
   2 H :   -0.008531
   3 H :    0.000613
   4 H :    0.000012
   5 H :   -0.000114
   6 C :   -0.140907
   7 O :   -0.465189
   8 H :    0.318261
   9 H :    0.103083
  10 H :    0.093490
  11 H :    0.098857
Sum of atomic charges:   -0.0000000

LOEWDIN ATOMIC CHARGES
----------------------
   0 C :   -0.004698
   1 O :   -0.002948
   2 H :   -0.032721
   3 H :   -0.005677
   4 H :   -0.000016
   5 H :   -0.000045
   6 C :   -0.417644
   7 O :   -0.012497
   8 H :    0.172161
   9 H :    0.106639
  10 H :    0.095855
  11 H :    0.101591

  Mayer bond orders larger than 0.1
B(  6-C ,  7-O ) :   1.0075 B(  6-C ,  9-H ) :   0.9748 B(  6-C , 10-H ) :   0.9800
B(  6-C , 11-H ) :   0.9856 B(  7-O ,  8-H ) :   0.8943

Dispersion correction           -0.000223579
FINAL SINGLE POINT ENERGY      -115.730192214107

DIPOLE MOMENT
-------------
                                X             Y             Z
Electronic contribution:     -1.10234       0.43494      -1.30701
Nuclear contribution   :      1.16385      -1.06732       1.43384
                        -----------------------------------------
Total Dipole Moment    :      0.06151      -0.63239       0.12683
                        -----------------------------------------
Magnitude (a.u.)       :      0.64791
Magnitude (Debye)      :      1.64685

Rotational constants in cm-1:     4.255430     0.893530     0.850710
Rotational constants in MHz : 127574.591596 26787.361836 25503.639356

                             ****ORCA TERMINATED NORMALLY****
TOTAL RUN TIME: 0 days 0 hours 1 minutes 5 seconds 196 msec
