                         Program Version 4.1.2  - RELEASE  -
|  1> #Run DFT-D3 single point of the dimer
|  2> ! wB97X-D3 def2-TZVP TIGHTSCF CHELPG PMODEL PAL8
|  3>
|  4> %base "18-128_DFT_AB"
|  5>
|  6> %scf
|  7> MaxIter 1000
|  8> end
|  9>
| 10> * xyz 0 1
| 11>   C                      -7.406621            -1.062606            -5.903901
| 12>   O                      -6.974387            0.219346             -6.228345
| 13>   H                      -7.660141            0.893785             -5.989689
| 14>   H                      -7.602370            -1.107406            -4.873669
| 15>   H                      -8.227226            -1.407391            -6.541051
| 16>   H                      -6.599956            -1.807910            -5.961405
| 17>   C                      -9.141681            1.126065             -9.212686
| 18>   O                      -9.397543            1.739633             -7.958958
| 19>   H                      -10.288361           1.627648             -7.600208
| 20>   H                      -9.376908            0.033728             -9.233123
| 21>   H                      -9.651895            1.656308             -9.992058
| 22>   H                      -8.030558            1.063212             -9.437059
| 23> *
| 24>
| 25> #Run DFT-D3 single point of the molecule with dimer basis set
| 26> $new_job
| 27> %base "18-128_DFT_A"
| 28> ! wB97X-D3 def2-TZVP TIGHTSCF CHELPG PMODEL
| 29>
| 30> %scf
| 31> MaxIter 1000
| 32> end
| 33>
| 34> * xyz 0 1
| 35>   C                      -7.406621            -1.062606            -5.903901
| 36>   O                      -6.974387            0.219346             -6.228345
| 37>   H                      -7.660141            0.893785             -5.989689
| 38>   H                      -7.602370            -1.107406            -4.873669
| 39>   H                      -8.227226            -1.407391            -6.541051
| 40>   H                      -6.599956            -1.807910            -5.961405
| 41>   C                    : -9.141681            1.126065             -9.212686
| 42>   O                    : -9.397543            1.739633             -7.958958
| 43>   H                    : -10.288361           1.627648             -7.600208
| 44>   H                    : -9.376908            0.033728             -9.233123
| 45>   H                    : -9.651895            1.656308             -9.992058
| 46>   H                    : -8.030558            1.063212             -9.437059
| 47> *
| 48>
| 49> #Run DFT-D3 single point of the particle with dimer basis set
| 50> $new_job
| 51> %base "18-128_DFT_B"
| 52> ! wB97X-D3 def2-TZVP TIGHTSCF CHELPG PMODEL
| 53>
| 54> %scf
| 55> MaxIter 1000
| 56> end
| 57>
| 58> * xyz 0 1
| 59>   C                    : -7.406621            -1.062606            -5.903901
| 60>   O                    : -6.974387            0.219346             -6.228345
| 61>   H                    : -7.660141            0.893785             -5.989689
| 62>   H                    : -7.602370            -1.107406            -4.873669
| 63>   H                    : -8.227226            -1.407391            -6.541051
| 64>   H                    : -6.599956            -1.807910            -5.961405
| 65>   C                      -9.141681            1.126065             -9.212686
| 66>   O                      -9.397543            1.739633             -7.958958
| 67>   H                      -10.288361           1.627648             -7.600208
| 68>   H                      -9.376908            0.033728             -9.233123
| 69>   H                      -9.651895            1.656308             -9.992058
| 70>   H                      -8.030558            1.063212             -9.437059
| 71> *
| 72>
| 73>                          ****END OF INPUT****
 Total Charge           Charge          ....    0
 Multiplicity           Mult            ....    1
 Number of Electrons    NEL             ....   36
Dispersion correction           -0.001812256
FINAL SINGLE POINT ENERGY      -231.466276030853
Dispersion correction           -0.000235523
FINAL SINGLE POINT ENERGY      -115.731505488693

CARTESIAN COORDINATES (ANGSTROEM)
---------------------------------
  C     -7.406621   -1.062606   -5.903901
  O     -6.974387    0.219346   -6.228345
  H     -7.660141    0.893785   -5.989689
  H     -7.602370   -1.107406   -4.873669
  H     -8.227226   -1.407391   -6.541051
  H     -6.599956   -1.807910   -5.961405
  C     -9.141681    1.126065   -9.212686
  O     -9.397543    1.739633   -7.958958
  H    -10.288361    1.627648   -7.600208
  H     -9.376908    0.033728   -9.233123
  H     -9.651895    1.656308   -9.992058
  H     -8.030558    1.063212   -9.437059

 Multiplicity           Mult            ....    1
 Number of Electrons    NEL             ....   18
 Basis Dimension        Dim             ....  172

ORBITAL ENERGIES
----------------

  NO   OCC          E(Eh)            E(eV)
   0   2.0000     -19.228793      -523.2420
   1   2.0000     -10.318862      -280.7905
   2   2.0000      -1.128345       -30.7038
   3   2.0000      -0.796342       -21.6696
   4   2.0000      -0.609305       -16.5800
   5   2.0000      -0.549648       -14.9567
   6   2.0000      -0.518459       -14.1080
   7   2.0000      -0.416631       -11.3371
   8   2.0000      -0.375689       -10.2230
   9   0.0000       0.090471         2.4618
  10   0.0000       0.125097         3.4041
  11   0.0000       0.145475         3.9586
  12   0.0000       0.175038         4.7630
  13   0.0000       0.195992         5.3332

MULLIKEN ATOMIC CHARGES
-----------------------
   0 C :   -0.001520
   1 O :    0.001246
   2 H :   -0.004754
   3 H :    0.000100
   4 H :   -0.000403
   5 H :   -0.000136
   6 C :   -0.153680
   7 O :   -0.494849
   8 H :    0.321296
   9 H :    0.101129
  10 H :    0.111149
  11 H :    0.120424
Sum of atomic charges:    0.0000000

LOEWDIN ATOMIC CHARGES
----------------------
   0 C :   -0.001527
   1 O :   -0.001659
   2 H :   -0.008610
   3 H :   -0.000007
   4 H :   -0.000486
   5 H :   -0.000034
   6 C :   -0.386781
   7 O :   -0.079863
   8 H :    0.170821
   9 H :    0.098693
  10 H :    0.091148
  11 H :    0.118306

  Mayer bond orders larger than 0.1
B(  6-C ,  7-O ) :   0.9845 B(  6-C ,  9-H ) :   0.9751 B(  6-C , 10-H ) :   0.9758
B(  6-C , 11-H ) :   0.9701 B(  7-O ,  8-H ) :   0.8882

Dispersion correction           -0.000275052
FINAL SINGLE POINT ENERGY      -115.731384646066

DIPOLE MOMENT
-------------
                                X             Y             Z
Electronic contribution:     -0.31584       0.91239       1.56104
Nuclear contribution   :     -0.16262      -1.24626      -1.85772
                        -----------------------------------------
Total Dipole Moment    :     -0.47845      -0.33387      -0.29668
                        -----------------------------------------
Magnitude (a.u.)       :      0.65453
Magnitude (Debye)      :      1.66368

Rotational constants in cm-1:     4.370122     0.803809     0.785223
Rotational constants in MHz : 131012.962399 24097.589856 23540.396381

                             ****ORCA TERMINATED NORMALLY****
TOTAL RUN TIME: 0 days 0 hours 0 minutes 59 seconds 745 msec
