                         Program Version 4.1.2  - RELEASE  -
|  1> #Run DFT-D3 single point of the dimer
|  2> ! wB97X-D3 def2-TZVP TIGHTSCF CHELPG PMODEL PAL8
|  3>
|  4> %base "7-69_DFT_AB"
|  5>
|  6> %scf
|  7> MaxIter 1000
|  8> end
|  9>
| 10> * xyz 0 1
| 11>   C                      -3.843015            3.387278             11.452532
| 12>   O                      -4.433860            3.915718             10.307268
| 13>   H                      -3.773737            3.785140             9.575087
| 14>   H                      -2.782898            3.479782             11.476008
| 15>   H                      -4.203933            3.855851             12.326470
| 16>   H                      -4.218804            2.365851             11.573091
| 17>   C                      -5.937137            1.611102             8.304273
| 18>   O                      -6.285615            0.571866             7.420897
| 19>   H                      -6.845697            0.910848             6.750429
| 20>   H                      -6.688215            1.793401             9.086896
| 21>   H                      -4.989211            1.450799             8.914783
| 22>   H                      -5.887714            2.542823             7.659055
| 23> *
| 24>
| 25> #Run DFT-D3 single point of the molecule with dimer basis set
| 26> $new_job
| 27> %base "7-69_DFT_A"
| 28> ! wB97X-D3 def2-TZVP TIGHTSCF CHELPG PMODEL
| 29>
| 30> %scf
| 31> MaxIter 1000
| 32> end
| 33>
| 34> * xyz 0 1
| 35>   C                      -3.843015            3.387278             11.452532
| 36>   O                      -4.433860            3.915718             10.307268
| 37>   H                      -3.773737            3.785140             9.575087
| 38>   H                      -2.782898            3.479782             11.476008
| 39>   H                      -4.203933            3.855851             12.326470
| 40>   H                      -4.218804            2.365851             11.573091
| 41>   C                    : -5.937137            1.611102             8.304273
| 42>   O                    : -6.285615            0.571866             7.420897
| 43>   H                    : -6.845697            0.910848             6.750429
| 44>   H                    : -6.688215            1.793401             9.086896
| 45>   H                    : -4.989211            1.450799             8.914783
| 46>   H                    : -5.887714            2.542823             7.659055
| 47> *
| 48>
| 49> #Run DFT-D3 single point of the particle with dimer basis set
| 50> $new_job
| 51> %base "7-69_DFT_B"
| 52> ! wB97X-D3 def2-TZVP TIGHTSCF CHELPG PMODEL
| 53>
| 54> %scf
| 55> MaxIter 1000
| 56> end
| 57>
| 58> * xyz 0 1
| 59>   C                    : -3.843015            3.387278             11.452532
| 60>   O                    : -4.433860            3.915718             10.307268
| 61>   H                    : -3.773737            3.785140             9.575087
| 62>   H                    : -2.782898            3.479782             11.476008
| 63>   H                    : -4.203933            3.855851             12.326470
| 64>   H                    : -4.218804            2.365851             11.573091
| 65>   C                      -5.937137            1.611102             8.304273
| 66>   O                      -6.285615            0.571866             7.420897
| 67>   H                      -6.845697            0.910848             6.750429
| 68>   H                      -6.688215            1.793401             9.086896
| 69>   H                      -4.989211            1.450799             8.914783
| 70>   H                      -5.887714            2.542823             7.659055
| 71> *
| 72>
| 73>                          ****END OF INPUT****
 Total Charge           Charge          ....    0
 Multiplicity           Mult            ....    1
 Number of Electrons    NEL             ....   36
Dispersion correction           -0.001712831
FINAL SINGLE POINT ENERGY      -231.462556409059
Dispersion correction           -0.000225766
FINAL SINGLE POINT ENERGY      -115.731238212240

CARTESIAN COORDINATES (ANGSTROEM)
---------------------------------
  C     -3.843015    3.387278   11.452532
  O     -4.433860    3.915718   10.307268
  H     -3.773737    3.785140    9.575087
  H     -2.782898    3.479782   11.476008
  H     -4.203933    3.855851   12.326470
  H     -4.218804    2.365851   11.573091
  C     -5.937137    1.611102    8.304273
  O     -6.285615    0.571866    7.420897
  H     -6.845697    0.910848    6.750429
  H     -6.688215    1.793401    9.086896
  H     -4.989211    1.450799    8.914783
  H     -5.887714    2.542823    7.659055

 Multiplicity           Mult            ....    1
 Number of Electrons    NEL             ....   18
 Basis Dimension        Dim             ....  172

ORBITAL ENERGIES
----------------

  NO   OCC          E(Eh)            E(eV)
   0   2.0000     -19.228536      -523.2351
   1   2.0000     -10.323927      -280.9283
   2   2.0000      -1.143342       -31.1119
   3   2.0000      -0.791595       -21.5404
   4   2.0000      -0.613967       -16.7069
   5   2.0000      -0.543621       -14.7927
   6   2.0000      -0.526646       -14.3308
   7   2.0000      -0.427908       -11.6440
   8   2.0000      -0.371252       -10.1023
   9   0.0000       0.083040         2.2596
  10   0.0000       0.114235         3.1085
  11   0.0000       0.148566         4.0427
  12   0.0000       0.172381         4.6907
  13   0.0000       0.182829         4.9750

MULLIKEN ATOMIC CHARGES
-----------------------
   0 C :    0.000641
   1 O :    0.000058
   2 H :   -0.001245
   3 H :   -0.000011
   4 H :   -0.000049
   5 H :   -0.000451
   6 C :   -0.166896
   7 O :   -0.467840
   8 H :    0.315891
   9 H :    0.102450
  10 H :    0.122218
  11 H :    0.095234
Sum of atomic charges:   -0.0000000

LOEWDIN ATOMIC CHARGES
----------------------
   0 C :   -0.001561
   1 O :   -0.001570
   2 H :   -0.002127
   3 H :   -0.000012
   4 H :   -0.000013
   5 H :   -0.000709
   6 C :   -0.398395
   7 O :   -0.063970
   8 H :    0.155758
   9 H :    0.092814
  10 H :    0.116723
  11 H :    0.103061

  Mayer bond orders larger than 0.1
B(  6-C ,  7-O ) :   1.0059 B(  6-C ,  9-H ) :   0.9664 B(  6-C , 10-H ) :   0.9689
B(  6-C , 11-H ) :   0.9909 B(  7-O ,  8-H ) :   0.9009

Dispersion correction           -0.000248794
FINAL SINGLE POINT ENERGY      -115.729534443905

DIPOLE MOMENT
-------------
                                X             Y             Z
Electronic contribution:     -0.34064      -1.52778      -1.07661
Nuclear contribution   :      0.10754       2.14735       0.98812
                        -----------------------------------------
Total Dipole Moment    :     -0.23310       0.61957      -0.08849
                        -----------------------------------------
Magnitude (a.u.)       :      0.66786
Magnitude (Debye)      :      1.69756

Rotational constants in cm-1:     4.227132     0.831882     0.794215
Rotational constants in MHz : 126726.221283 24939.205177 23809.979910

                             ****ORCA TERMINATED NORMALLY****
TOTAL RUN TIME: 0 days 0 hours 1 minutes 9 seconds 276 msec
