                         Program Version 4.1.2  - RELEASE  -
|  1> #Run DFT-D3 single point of the dimer
|  2> ! wB97X-D3 def2-TZVP TIGHTSCF CHELPG PMODEL PAL8
|  3>
|  4> %base "18-61_DFT_AB"
|  5>
|  6> %scf
|  7> MaxIter 1000
|  8> end
|  9>
| 10> * xyz 0 1
| 11>   C                      1.360282             -4.777872            -0.154041
| 12>   O                      0.112124             -4.454516            0.466890
| 13>   H                      0.255263             -3.645348            0.929075
| 14>   H                      1.579164             -4.006664            -0.829384
| 15>   H                      2.089112             -4.804114            0.602860
| 16>   H                      1.466500             -5.741228            -0.685839
| 17>   C                      0.218613             -3.774525            -3.429401
| 18>   O                      -0.607822            -3.042870            -4.238015
| 19>   H                      -0.933965            -3.609689            -4.932141
| 20>   H                      0.524269             -3.125596            -2.622507
| 21>   H                      -0.271415            -4.676162            -3.031674
| 22>   H                      1.146558             -4.186064            -3.897141
| 23> *
| 24>
| 25> #Run DFT-D3 single point of the molecule with dimer basis set
| 26> $new_job
| 27> %base "18-61_DFT_A"
| 28> ! wB97X-D3 def2-TZVP TIGHTSCF CHELPG PMODEL
| 29>
| 30> %scf
| 31> MaxIter 1000
| 32> end
| 33>
| 34> * xyz 0 1
| 35>   C                      1.360282             -4.777872            -0.154041
| 36>   O                      0.112124             -4.454516            0.466890
| 37>   H                      0.255263             -3.645348            0.929075
| 38>   H                      1.579164             -4.006664            -0.829384
| 39>   H                      2.089112             -4.804114            0.602860
| 40>   H                      1.466500             -5.741228            -0.685839
| 41>   C                    : 0.218613             -3.774525            -3.429401
| 42>   O                    : -0.607822            -3.042870            -4.238015
| 43>   H                    : -0.933965            -3.609689            -4.932141
| 44>   H                    : 0.524269             -3.125596            -2.622507
| 45>   H                    : -0.271415            -4.676162            -3.031674
| 46>   H                    : 1.146558             -4.186064            -3.897141
| 47> *
| 48>
| 49> #Run DFT-D3 single point of the particle with dimer basis set
| 50> $new_job
| 51> %base "18-61_DFT_B"
| 52> ! wB97X-D3 def2-TZVP TIGHTSCF CHELPG PMODEL
| 53>
| 54> %scf
| 55> MaxIter 1000
| 56> end
| 57>
| 58> * xyz 0 1
| 59>   C                    : 1.360282             -4.777872            -0.154041
| 60>   O                    : 0.112124             -4.454516            0.466890
| 61>   H                    : 0.255263             -3.645348            0.929075
| 62>   H                    : 1.579164             -4.006664            -0.829384
| 63>   H                    : 2.089112             -4.804114            0.602860
| 64>   H                    : 1.466500             -5.741228            -0.685839
| 65>   C                      0.218613             -3.774525            -3.429401
| 66>   O                      -0.607822            -3.042870            -4.238015
| 67>   H                      -0.933965            -3.609689            -4.932141
| 68>   H                      0.524269             -3.125596            -2.622507
| 69>   H                      -0.271415            -4.676162            -3.031674
| 70>   H                      1.146558             -4.186064            -3.897141
| 71> *
| 72>
| 73>                          ****END OF INPUT****
 Total Charge           Charge          ....    0
 Multiplicity           Mult            ....    1
 Number of Electrons    NEL             ....   36
Dispersion correction           -0.001715509
FINAL SINGLE POINT ENERGY      -231.464279966037
Dispersion correction           -0.000217386
FINAL SINGLE POINT ENERGY      -115.728593331634

CARTESIAN COORDINATES (ANGSTROEM)
---------------------------------
  C      1.360282   -4.777872   -0.154041
  O      0.112124   -4.454516    0.466890
  H      0.255263   -3.645348    0.929075
  H      1.579164   -4.006664   -0.829384
  H      2.089112   -4.804114    0.602860
  H      1.466500   -5.741228   -0.685839
  C      0.218613   -3.774525   -3.429401
  O     -0.607822   -3.042870   -4.238015
  H     -0.933965   -3.609689   -4.932141
  H      0.524269   -3.125596   -2.622507
  H     -0.271415   -4.676162   -3.031674
  H      1.146558   -4.186064   -3.897141

 Multiplicity           Mult            ....    1
 Number of Electrons    NEL             ....   18
 Basis Dimension        Dim             ....  172

ORBITAL ENERGIES
----------------

  NO   OCC          E(Eh)            E(eV)
   0   2.0000     -19.232424      -523.3409
   1   2.0000     -10.309881      -280.5461
   2   2.0000      -1.153763       -31.3955
   3   2.0000      -0.794511       -21.6197
   4   2.0000      -0.625143       -17.0110
   5   2.0000      -0.539641       -14.6844
   6   2.0000      -0.532460       -14.4890
   7   2.0000      -0.436084       -11.8664
   8   2.0000      -0.370232       -10.0745
   9   0.0000       0.086112         2.3432
  10   0.0000       0.117094         3.1863
  11   0.0000       0.152402         4.1471
  12   0.0000       0.169215         4.6046
  13   0.0000       0.185587         5.0501

MULLIKEN ATOMIC CHARGES
-----------------------
   0 C :   -0.002653
   1 O :    0.000621
   2 H :    0.000044
   3 H :   -0.000447
   4 H :   -0.000025
   5 H :    0.000013
   6 C :   -0.153097
   7 O :   -0.454177
   8 H :    0.313538
   9 H :    0.121390
  10 H :    0.088323
  11 H :    0.086470
Sum of atomic charges:   -0.0000000

LOEWDIN ATOMIC CHARGES
----------------------
   0 C :   -0.006353
   1 O :   -0.000210
   2 H :   -0.000068
   3 H :   -0.005412
   4 H :   -0.000046
   5 H :   -0.000495
   6 C :   -0.422044
   7 O :   -0.033248
   8 H :    0.169017
   9 H :    0.110995
  10 H :    0.093521
  11 H :    0.094343

  Mayer bond orders larger than 0.1
B(  6-C ,  7-O ) :   1.0168 B(  6-C ,  9-H ) :   0.9747 B(  6-C , 10-H ) :   0.9769
B(  6-C , 11-H ) :   0.9671 B(  7-O ,  8-H ) :   0.8993

Dispersion correction           -0.000231797
FINAL SINGLE POINT ENERGY      -115.735066181009

DIPOLE MOMENT
-------------
                                X             Y             Z
Electronic contribution:     -1.12782       1.15851      -1.03214
Nuclear contribution   :      1.20719      -1.77489       0.88143
                        -----------------------------------------
Total Dipole Moment    :      0.07937      -0.61637      -0.15071
                        -----------------------------------------
Magnitude (a.u.)       :      0.63948
Magnitude (Debye)      :      1.62542

Rotational constants in cm-1:     4.342464     0.873907     0.836093
Rotational constants in MHz : 130183.783328 26199.075379 25065.425069

                             ****ORCA TERMINATED NORMALLY****
TOTAL RUN TIME: 0 days 0 hours 0 minutes 54 seconds 372 msec
