                         Program Version 4.1.2  - RELEASE  -
|  1> #Run DFT-D3 single point of the dimer
|  2> ! wB97X-D3 def2-TZVP TIGHTSCF CHELPG PMODEL PAL8
|  3>
|  4> %base "18-150_DFT_AB"
|  5>
|  6> %scf
|  7> MaxIter 1000
|  8> end
|  9>
| 10> * xyz 0 1
| 11>   C                      -4.705405            -6.045937            -2.716476
| 12>   O                      -4.195325            -6.323978            -4.010919
| 13>   H                      -3.229835            -6.466747            -3.899415
| 14>   H                      -5.784421            -6.115569            -2.625939
| 15>   H                      -4.236287            -6.769227            -2.008909
| 16>   H                      -4.465251            -5.007100            -2.429181
| 17>   C                      -3.411738            -10.063526           -2.149309
| 18>   O                      -3.913405            -9.091478            -3.041358
| 19>   H                      -3.308904            -8.397570            -3.272877
| 20>   H                      -2.708860            -9.666665            -1.408461
| 21>   H                      -4.277812            -10.569074           -1.653661
| 22>   H                      -2.900248            -10.831530           -2.750985
| 23> *
| 24>
| 25> #Run DFT-D3 single point of the molecule with dimer basis set
| 26> $new_job
| 27> %base "18-150_DFT_A"
| 28> ! wB97X-D3 def2-TZVP TIGHTSCF CHELPG PMODEL
| 29>
| 30> %scf
| 31> MaxIter 1000
| 32> end
| 33>
| 34> * xyz 0 1
| 35>   C                      -4.705405            -6.045937            -2.716476
| 36>   O                      -4.195325            -6.323978            -4.010919
| 37>   H                      -3.229835            -6.466747            -3.899415
| 38>   H                      -5.784421            -6.115569            -2.625939
| 39>   H                      -4.236287            -6.769227            -2.008909
| 40>   H                      -4.465251            -5.007100            -2.429181
| 41>   C                    : -3.411738            -10.063526           -2.149309
| 42>   O                    : -3.913405            -9.091478            -3.041358
| 43>   H                    : -3.308904            -8.397570            -3.272877
| 44>   H                    : -2.708860            -9.666665            -1.408461
| 45>   H                    : -4.277812            -10.569074           -1.653661
| 46>   H                    : -2.900248            -10.831530           -2.750985
| 47> *
| 48>
| 49> #Run DFT-D3 single point of the particle with dimer basis set
| 50> $new_job
| 51> %base "18-150_DFT_B"
| 52> ! wB97X-D3 def2-TZVP TIGHTSCF CHELPG PMODEL
| 53>
| 54> %scf
| 55> MaxIter 1000
| 56> end
| 57>
| 58> * xyz 0 1
| 59>   C                    : -4.705405            -6.045937            -2.716476
| 60>   O                    : -4.195325            -6.323978            -4.010919
| 61>   H                    : -3.229835            -6.466747            -3.899415
| 62>   H                    : -5.784421            -6.115569            -2.625939
| 63>   H                    : -4.236287            -6.769227            -2.008909
| 64>   H                    : -4.465251            -5.007100            -2.429181
| 65>   C                      -3.411738            -10.063526           -2.149309
| 66>   O                      -3.913405            -9.091478            -3.041358
| 67>   H                      -3.308904            -8.397570            -3.272877
| 68>   H                      -2.708860            -9.666665            -1.408461
| 69>   H                      -4.277812            -10.569074           -1.653661
| 70>   H                      -2.900248            -10.831530           -2.750985
| 71> *
| 72>
| 73>                          ****END OF INPUT****
 Total Charge           Charge          ....    0
 Multiplicity           Mult            ....    1
 Number of Electrons    NEL             ....   36
Dispersion correction           -0.001860989
FINAL SINGLE POINT ENERGY      -231.465807982594
Dispersion correction           -0.000235445
FINAL SINGLE POINT ENERGY      -115.734304201976

CARTESIAN COORDINATES (ANGSTROEM)
---------------------------------
  C     -4.705405   -6.045937   -2.716476
  O     -4.195325   -6.323978   -4.010919
  H     -3.229835   -6.466747   -3.899415
  H     -5.784421   -6.115569   -2.625939
  H     -4.236287   -6.769227   -2.008909
  H     -4.465251   -5.007100   -2.429181
  C     -3.411738  -10.063526   -2.149309
  O     -3.913405   -9.091478   -3.041358
  H     -3.308904   -8.397570   -3.272877
  H     -2.708860   -9.666665   -1.408461
  H     -4.277812  -10.569074   -1.653661
  H     -2.900248  -10.831530   -2.750985

 Multiplicity           Mult            ....    1
 Number of Electrons    NEL             ....   18
 Basis Dimension        Dim             ....  172

ORBITAL ENERGIES
----------------

  NO   OCC          E(Eh)            E(eV)
   0   2.0000     -19.226264      -523.1732
   1   2.0000     -10.317634      -280.7571
   2   2.0000      -1.134368       -30.8677
   3   2.0000      -0.797151       -21.6916
   4   2.0000      -0.614000       -16.7078
   5   2.0000      -0.538624       -14.6567
   6   2.0000      -0.528435       -14.3794
   7   2.0000      -0.427783       -11.6406
   8   2.0000      -0.370477       -10.0812
   9   0.0000       0.083917         2.2835
  10   0.0000       0.134551         3.6613
  11   0.0000       0.148219         4.0332
  12   0.0000       0.183857         5.0030
  13   0.0000       0.193300         5.2600

MULLIKEN ATOMIC CHARGES
-----------------------
   0 C :    0.006290
   1 O :   -0.000871
   2 H :   -0.000931
   3 H :   -0.001172
   4 H :   -0.017278
   5 H :   -0.000716
   6 C :   -0.156867
   7 O :   -0.478919
   8 H :    0.317858
   9 H :    0.108455
  10 H :    0.118925
  11 H :    0.105226
Sum of atomic charges:   -0.0000000

LOEWDIN ATOMIC CHARGES
----------------------
   0 C :   -0.014452
   1 O :   -0.004970
   2 H :   -0.004639
   3 H :   -0.000610
   4 H :   -0.010892
   5 H :   -0.000192
   6 C :   -0.383697
   7 O :   -0.052534
   8 H :    0.164884
   9 H :    0.095565
  10 H :    0.113925
  11 H :    0.097611

  Mayer bond orders larger than 0.1
B(  6-C ,  7-O ) :   0.9854 B(  6-C ,  9-H ) :   0.9734 B(  6-C , 10-H ) :   0.9736
B(  6-C , 11-H ) :   0.9795 B(  7-O ,  8-H ) :   0.8945

Dispersion correction           -0.000256764
FINAL SINGLE POINT ENERGY      -115.735172926840

DIPOLE MOMENT
-------------
                                X             Y             Z
Electronic contribution:     -0.69658       1.21252      -1.04790
Nuclear contribution   :      1.30607      -1.16728       1.26429
                        -----------------------------------------
Total Dipole Moment    :      0.60949       0.04524       0.21639
                        -----------------------------------------
Magnitude (a.u.)       :      0.64835
Magnitude (Debye)      :      1.64796

Rotational constants in cm-1:     4.298978     0.827342     0.797507
Rotational constants in MHz : 128880.126961 24803.102450 23908.669936

                             ****ORCA TERMINATED NORMALLY****
TOTAL RUN TIME: 0 days 0 hours 0 minutes 55 seconds 653 msec
