                         Program Version 4.1.2  - RELEASE  -
|  1> #Run DFT-D3 single point of the dimer
|  2> ! wB97X-D3 def2-TZVP TIGHTSCF CHELPG PMODEL PAL8
|  3>
|  4> %base "5-49_DFT_AB"
|  5>
|  6> %scf
|  7> MaxIter 1000
|  8> end
|  9>
| 10> * xyz 0 1
| 11>   C                      -2.327879            -1.689422            -8.778547
| 12>   O                      -1.414397            -2.216028            -7.842568
| 13>   H                      -1.431879            -3.135477            -8.159358
| 14>   H                      -1.907718            -1.481460            -9.705796
| 15>   H                      -3.138934            -2.311804            -8.966968
| 16>   H                      -2.843604            -0.810400            -8.339234
| 17>   C                      -2.106883            2.611849             -8.806050
| 18>   O                      -3.080044            2.167855             -9.737122
| 19>   H                      -2.594553            1.978866             -10.548751
| 20>   H                      -1.951212            3.726807             -8.669307
| 21>   H                      -2.319075            2.201538             -7.798940
| 22>   H                      -1.134035            2.057449             -8.961830
| 23> *
| 24>
| 25> #Run DFT-D3 single point of the molecule with dimer basis set
| 26> $new_job
| 27> %base "5-49_DFT_A"
| 28> ! wB97X-D3 def2-TZVP TIGHTSCF CHELPG PMODEL
| 29>
| 30> %scf
| 31> MaxIter 1000
| 32> end
| 33>
| 34> * xyz 0 1
| 35>   C                      -2.327879            -1.689422            -8.778547
| 36>   O                      -1.414397            -2.216028            -7.842568
| 37>   H                      -1.431879            -3.135477            -8.159358
| 38>   H                      -1.907718            -1.481460            -9.705796
| 39>   H                      -3.138934            -2.311804            -8.966968
| 40>   H                      -2.843604            -0.810400            -8.339234
| 41>   C                    : -2.106883            2.611849             -8.806050
| 42>   O                    : -3.080044            2.167855             -9.737122
| 43>   H                    : -2.594553            1.978866             -10.548751
| 44>   H                    : -1.951212            3.726807             -8.669307
| 45>   H                    : -2.319075            2.201538             -7.798940
| 46>   H                    : -1.134035            2.057449             -8.961830
| 47> *
| 48>
| 49> #Run DFT-D3 single point of the particle with dimer basis set
| 50> $new_job
| 51> %base "5-49_DFT_B"
| 52> ! wB97X-D3 def2-TZVP TIGHTSCF CHELPG PMODEL
| 53>
| 54> %scf
| 55> MaxIter 1000
| 56> end
| 57>
| 58> * xyz 0 1
| 59>   C                    : -2.327879            -1.689422            -8.778547
| 60>   O                    : -1.414397            -2.216028            -7.842568
| 61>   H                    : -1.431879            -3.135477            -8.159358
| 62>   H                    : -1.907718            -1.481460            -9.705796
| 63>   H                    : -3.138934            -2.311804            -8.966968
| 64>   H                    : -2.843604            -0.810400            -8.339234
| 65>   C                      -2.106883            2.611849             -8.806050
| 66>   O                      -3.080044            2.167855             -9.737122
| 67>   H                      -2.594553            1.978866             -10.548751
| 68>   H                      -1.951212            3.726807             -8.669307
| 69>   H                      -2.319075            2.201538             -7.798940
| 70>   H                      -1.134035            2.057449             -8.961830
| 71> *
| 72>
| 73>                          ****END OF INPUT****
 Total Charge           Charge          ....    0
 Multiplicity           Mult            ....    1
 Number of Electrons    NEL             ....   36
Dispersion correction           -0.001399468
FINAL SINGLE POINT ENERGY      -231.457663658735
Dispersion correction           -0.000207047
FINAL SINGLE POINT ENERGY      -115.726538591037

CARTESIAN COORDINATES (ANGSTROEM)
---------------------------------
  C     -2.327879   -1.689422   -8.778547
  O     -1.414397   -2.216028   -7.842568
  H     -1.431879   -3.135477   -8.159358
  H     -1.907718   -1.481460   -9.705796
  H     -3.138934   -2.311804   -8.966968
  H     -2.843604   -0.810400   -8.339234
  C     -2.106883    2.611849   -8.806050
  O     -3.080044    2.167855   -9.737122
  H     -2.594553    1.978866  -10.548751
  H     -1.951212    3.726807   -8.669307
  H     -2.319075    2.201538   -7.798940
  H     -1.134035    2.057449   -8.961830

 Multiplicity           Mult            ....    1
 Number of Electrons    NEL             ....   18
 Basis Dimension        Dim             ....  172

ORBITAL ENERGIES
----------------

  NO   OCC          E(Eh)            E(eV)
   0   2.0000     -19.236959      -523.4643
   1   2.0000     -10.323274      -280.9106
   2   2.0000      -1.138660       -30.9845
   3   2.0000      -0.790256       -21.5040
   4   2.0000      -0.608897       -16.5689
   5   2.0000      -0.542069       -14.7504
   6   2.0000      -0.523636       -14.2489
   7   2.0000      -0.424775       -11.5587
   8   2.0000      -0.380089       -10.3428
   9   0.0000       0.083417         2.2699
  10   0.0000       0.119251         3.2450
  11   0.0000       0.143855         3.9145
  12   0.0000       0.176435         4.8010
  13   0.0000       0.187243         5.0951

MULLIKEN ATOMIC CHARGES
-----------------------
   0 C :   -0.000196
   1 O :   -0.000061
   2 H :   -0.000014
   3 H :   -0.001133
   4 H :   -0.000078
   5 H :   -0.000771
   6 C :   -0.186583
   7 O :   -0.466348
   8 H :    0.321440
   9 H :    0.114701
  10 H :    0.115078
  11 H :    0.103965
Sum of atomic charges:   -0.0000000

LOEWDIN ATOMIC CHARGES
----------------------
   0 C :   -0.002066
   1 O :   -0.000025
   2 H :   -0.000011
   3 H :   -0.000422
   4 H :   -0.000014
   5 H :   -0.001496
   6 C :   -0.408086
   7 O :   -0.077182
   8 H :    0.174846
   9 H :    0.103782
  10 H :    0.106904
  11 H :    0.103769

  Mayer bond orders larger than 0.1
B(  6-C ,  7-O ) :   1.0048 B(  6-C ,  9-H ) :   0.9624 B(  6-C , 10-H ) :   0.9766
B(  6-C , 11-H ) :   0.9838 B(  7-O ,  8-H ) :   0.8972

Dispersion correction           -0.000272696
FINAL SINGLE POINT ENERGY      -115.729614815885

DIPOLE MOMENT
-------------
                                X             Y             Z
Electronic contribution:     -1.48308      -0.41773      -1.25920
Nuclear contribution   :      2.16763       0.43298       1.11919
                        -----------------------------------------
Total Dipole Moment    :      0.68455       0.01525      -0.14001
                        -----------------------------------------
Magnitude (a.u.)       :      0.69889
Magnitude (Debye)      :      1.77644

Rotational constants in cm-1:     4.211801     0.807801     0.790196
Rotational constants in MHz : 126266.625714 24217.271348 23689.480637

                             ****ORCA TERMINATED NORMALLY****
TOTAL RUN TIME: 0 days 0 hours 0 minutes 51 seconds 851 msec
