                         Program Version 4.1.2  - RELEASE  -
|  1> #Run DFT-D3 single point of the dimer
|  2> ! wB97X-D3 def2-TZVP TIGHTSCF CHELPG PMODEL PAL8
|  3>
|  4> %base "6-161_DFT_AB"
|  5>
|  6> %scf
|  7> MaxIter 1000
|  8> end
|  9>
| 10> * xyz 0 1
| 11>   C                      -9.188982            2.734245             -3.089868
| 12>   O                      -7.949023            2.911490             -3.748448
| 13>   H                      -7.436477            3.426553             -3.131312
| 14>   H                      -9.203550            1.752508             -2.653941
| 15>   H                      -9.451400            3.492022             -2.322861
| 16>   H                      -10.104893           2.853784             -3.707225
| 17>   C                      -7.280844            6.258362             -1.869373
| 18>   O                      -6.851826            4.897914             -1.855006
| 19>   H                      -6.765872            4.622303             -0.926568
| 20>   H                      -6.437297            6.972732             -1.824910
| 21>   H                      -7.547841            6.518450             -2.920986
| 22>   H                      -8.073158            6.482182             -1.205432
| 23> *
| 24>
| 25> #Run DFT-D3 single point of the molecule with dimer basis set
| 26> $new_job
| 27> %base "6-161_DFT_A"
| 28> ! wB97X-D3 def2-TZVP TIGHTSCF CHELPG PMODEL
| 29>
| 30> %scf
| 31> MaxIter 1000
| 32> end
| 33>
| 34> * xyz 0 1
| 35>   C                      -9.188982            2.734245             -3.089868
| 36>   O                      -7.949023            2.911490             -3.748448
| 37>   H                      -7.436477            3.426553             -3.131312
| 38>   H                      -9.203550            1.752508             -2.653941
| 39>   H                      -9.451400            3.492022             -2.322861
| 40>   H                      -10.104893           2.853784             -3.707225
| 41>   C                    : -7.280844            6.258362             -1.869373
| 42>   O                    : -6.851826            4.897914             -1.855006
| 43>   H                    : -6.765872            4.622303             -0.926568
| 44>   H                    : -6.437297            6.972732             -1.824910
| 45>   H                    : -7.547841            6.518450             -2.920986
| 46>   H                    : -8.073158            6.482182             -1.205432
| 47> *
| 48>
| 49> #Run DFT-D3 single point of the particle with dimer basis set
| 50> $new_job
| 51> %base "6-161_DFT_B"
| 52> ! wB97X-D3 def2-TZVP TIGHTSCF CHELPG PMODEL
| 53>
| 54> %scf
| 55> MaxIter 1000
| 56> end
| 57>
| 58> * xyz 0 1
| 59>   C                    : -9.188982            2.734245             -3.089868
| 60>   O                    : -7.949023            2.911490             -3.748448
| 61>   H                    : -7.436477            3.426553             -3.131312
| 62>   H                    : -9.203550            1.752508             -2.653941
| 63>   H                    : -9.451400            3.492022             -2.322861
| 64>   H                    : -10.104893           2.853784             -3.707225
| 65>   C                      -7.280844            6.258362             -1.869373
| 66>   O                      -6.851826            4.897914             -1.855006
| 67>   H                      -6.765872            4.622303             -0.926568
| 68>   H                      -6.437297            6.972732             -1.824910
| 69>   H                      -7.547841            6.518450             -2.920986
| 70>   H                      -8.073158            6.482182             -1.205432
| 71> *
| 72>
| 73>                          ****END OF INPUT****
 Total Charge           Charge          ....    0
 Multiplicity           Mult            ....    1
 Number of Electrons    NEL             ....   36
Dispersion correction           -0.001952597
FINAL SINGLE POINT ENERGY      -231.470158234283
Dispersion correction           -0.000252695
FINAL SINGLE POINT ENERGY      -115.730688522437

CARTESIAN COORDINATES (ANGSTROEM)
---------------------------------
  C     -9.188982    2.734245   -3.089868
  O     -7.949023    2.911490   -3.748448
  H     -7.436477    3.426553   -3.131312
  H     -9.203550    1.752508   -2.653941
  H     -9.451400    3.492022   -2.322861
  H    -10.104893    2.853784   -3.707225
  C     -7.280844    6.258362   -1.869373
  O     -6.851826    4.897914   -1.855006
  H     -6.765872    4.622303   -0.926568
  H     -6.437297    6.972732   -1.824910
  H     -7.547841    6.518450   -2.920986
  H     -8.073158    6.482182   -1.205432

 Multiplicity           Mult            ....    1
 Number of Electrons    NEL             ....   18
 Basis Dimension        Dim             ....  172

ORBITAL ENERGIES
----------------

  NO   OCC          E(Eh)            E(eV)
   0   2.0000     -19.234164      -523.3882
   1   2.0000     -10.313863      -280.6545
   2   2.0000      -1.131287       -30.7839
   3   2.0000      -0.797740       -21.7076
   4   2.0000      -0.609071       -16.5737
   5   2.0000      -0.550363       -14.9761
   6   2.0000      -0.515744       -14.0341
   7   2.0000      -0.434566       -11.8251
   8   2.0000      -0.373272       -10.1573
   9   0.0000       0.096046         2.6135
  10   0.0000       0.128192         3.4883
  11   0.0000       0.148646         4.0449
  12   0.0000       0.182019         4.9530
  13   0.0000       0.202959         5.5228

MULLIKEN ATOMIC CHARGES
-----------------------
   0 C :    0.001697
   1 O :   -0.001398
   2 H :   -0.003951
   3 H :   -0.000006
   4 H :   -0.006109
   5 H :   -0.000468
   6 C :   -0.165057
   7 O :   -0.469100
   8 H :    0.313708
   9 H :    0.100458
  10 H :    0.114238
  11 H :    0.115988
Sum of atomic charges:    0.0000000

LOEWDIN ATOMIC CHARGES
----------------------
   0 C :   -0.006329
   1 O :   -0.003863
   2 H :   -0.033712
   3 H :   -0.000084
   4 H :   -0.003436
   5 H :   -0.000077
   6 C :   -0.382951
   7 O :   -0.049685
   8 H :    0.175256
   9 H :    0.100137
  10 H :    0.115602
  11 H :    0.089142

  Mayer bond orders larger than 0.1
B(  6-C ,  7-O ) :   0.9969 B(  6-C ,  9-H ) :   0.9715 B(  6-C , 10-H ) :   0.9806
B(  6-C , 11-H ) :   0.9714 B(  7-O ,  8-H ) :   0.8968

Dispersion correction           -0.000259847
FINAL SINGLE POINT ENERGY      -115.730916630104

DIPOLE MOMENT
-------------
                                X             Y             Z
Electronic contribution:      0.43881      -1.79181       0.09867
Nuclear contribution   :     -0.55546       2.18027       0.46465
                        -----------------------------------------
Total Dipole Moment    :     -0.11665       0.38847       0.56332
                        -----------------------------------------
Magnitude (a.u.)       :      0.69415
Magnitude (Debye)      :      1.76438

Rotational constants in cm-1:     4.346536     0.816757     0.783153
Rotational constants in MHz : 130305.874376 24485.754483 23478.330152

                             ****ORCA TERMINATED NORMALLY****
TOTAL RUN TIME: 0 days 0 hours 1 minutes 4 seconds 968 msec
