                         Program Version 4.1.2  - RELEASE  -
|  1> #Run DFT-D3 single point of the dimer
|  2> ! wB97X-D3 def2-TZVP TIGHTSCF CHELPG PMODEL PAL8
|  3>
|  4> %base "21-96_DFT_AB"
|  5>
|  6> %scf
|  7> MaxIter 1000
|  8> end
|  9>
| 10> * xyz 0 1
| 11>   C                      -9.935633            -1.088503            1.284899
| 12>   O                      -11.033869           -1.960237            1.345496
| 13>   H                      -11.887862           -1.623931            1.666152
| 14>   H                      -8.996411            -1.368978            1.817904
| 15>   H                      -9.676983            -0.896278            0.194077
| 16>   H                      -10.219109           -0.076535            1.690126
| 17>   C                      -9.294112            -3.569189            3.853460
| 18>   O                      -10.156595           -3.920633            4.905479
| 19>   H                      -10.388437           -4.877935            4.837112
| 20>   H                      -8.968082            -2.549922            3.933260
| 21>   H                      -8.417261            -4.273558            3.912887
| 22>   H                      -9.732543            -3.741234            2.869147
| 23> *
| 24>
| 25> #Run DFT-D3 single point of the molecule with dimer basis set
| 26> $new_job
| 27> %base "21-96_DFT_A"
| 28> ! wB97X-D3 def2-TZVP TIGHTSCF CHELPG PMODEL
| 29>
| 30> %scf
| 31> MaxIter 1000
| 32> end
| 33>
| 34> * xyz 0 1
| 35>   C                      -9.935633            -1.088503            1.284899
| 36>   O                      -11.033869           -1.960237            1.345496
| 37>   H                      -11.887862           -1.623931            1.666152
| 38>   H                      -8.996411            -1.368978            1.817904
| 39>   H                      -9.676983            -0.896278            0.194077
| 40>   H                      -10.219109           -0.076535            1.690126
| 41>   C                    : -9.294112            -3.569189            3.853460
| 42>   O                    : -10.156595           -3.920633            4.905479
| 43>   H                    : -10.388437           -4.877935            4.837112
| 44>   H                    : -8.968082            -2.549922            3.933260
| 45>   H                    : -8.417261            -4.273558            3.912887
| 46>   H                    : -9.732543            -3.741234            2.869147
| 47> *
| 48>
| 49> #Run DFT-D3 single point of the particle with dimer basis set
| 50> $new_job
| 51> %base "21-96_DFT_B"
| 52> ! wB97X-D3 def2-TZVP TIGHTSCF CHELPG PMODEL
| 53>
| 54> %scf
| 55> MaxIter 1000
| 56> end
| 57>
| 58> * xyz 0 1
| 59>   C                    : -9.935633            -1.088503            1.284899
| 60>   O                    : -11.033869           -1.960237            1.345496
| 61>   H                    : -11.887862           -1.623931            1.666152
| 62>   H                    : -8.996411            -1.368978            1.817904
| 63>   H                    : -9.676983            -0.896278            0.194077
| 64>   H                    : -10.219109           -0.076535            1.690126
| 65>   C                      -9.294112            -3.569189            3.853460
| 66>   O                      -10.156595           -3.920633            4.905479
| 67>   H                      -10.388437           -4.877935            4.837112
| 68>   H                      -8.968082            -2.549922            3.933260
| 69>   H                      -8.417261            -4.273558            3.912887
| 70>   H                      -9.732543            -3.741234            2.869147
| 71> *
| 72>
| 73>                          ****END OF INPUT****
 Total Charge           Charge          ....    0
 Multiplicity           Mult            ....    1
 Number of Electrons    NEL             ....   36
Dispersion correction           -0.001873247
FINAL SINGLE POINT ENERGY      -231.463816954871
Dispersion correction           -0.000280027
FINAL SINGLE POINT ENERGY      -115.728349702354

CARTESIAN COORDINATES (ANGSTROEM)
---------------------------------
  C     -9.935633   -1.088503    1.284899
  O    -11.033869   -1.960237    1.345496
  H    -11.887862   -1.623931    1.666152
  H     -8.996411   -1.368978    1.817904
  H     -9.676983   -0.896278    0.194077
  H    -10.219109   -0.076535    1.690126
  C     -9.294112   -3.569189    3.853460
  O    -10.156595   -3.920633    4.905479
  H    -10.388437   -4.877935    4.837112
  H     -8.968082   -2.549922    3.933260
  H     -8.417261   -4.273558    3.912887
  H     -9.732543   -3.741234    2.869147

 Multiplicity           Mult            ....    1
 Number of Electrons    NEL             ....   18
 Basis Dimension        Dim             ....  172

ORBITAL ENERGIES
----------------

  NO   OCC          E(Eh)            E(eV)
   0   2.0000     -19.230173      -523.2796
   1   2.0000     -10.313545      -280.6458
   2   2.0000      -1.132601       -30.8196
   3   2.0000      -0.792151       -21.5555
   4   2.0000      -0.609231       -16.5780
   5   2.0000      -0.537851       -14.6357
   6   2.0000      -0.533781       -14.5249
   7   2.0000      -0.432155       -11.7595
   8   2.0000      -0.367728       -10.0064
   9   0.0000       0.086203         2.3457
  10   0.0000       0.112363         3.0576
  11   0.0000       0.156868         4.2686
  12   0.0000       0.167415         4.5556
  13   0.0000       0.179746         4.8911

MULLIKEN ATOMIC CHARGES
-----------------------
   0 C :   -0.002771
   1 O :    0.001337
   2 H :    0.000186
   3 H :   -0.000933
   4 H :   -0.000129
   5 H :    0.000075
   6 C :   -0.150889
   7 O :   -0.478287
   8 H :    0.318305
   9 H :    0.122325
  10 H :    0.093387
  11 H :    0.097394
Sum of atomic charges:   -0.0000000

LOEWDIN ATOMIC CHARGES
----------------------
   0 C :   -0.007274
   1 O :   -0.003273
   2 H :   -0.000253
   3 H :   -0.004143
   4 H :   -0.000053
   5 H :   -0.000099
   6 C :   -0.385956
   7 O :   -0.085152
   8 H :    0.185424
   9 H :    0.106623
  10 H :    0.099313
  11 H :    0.094843

  Mayer bond orders larger than 0.1
B(  6-C ,  7-O ) :   0.9986 B(  6-C ,  9-H ) :   0.9713 B(  6-C , 10-H ) :   0.9805
B(  6-C , 11-H ) :   0.9721 B(  7-O ,  8-H ) :   0.8918

Dispersion correction           -0.000230769
FINAL SINGLE POINT ENERGY      -115.733913278470

DIPOLE MOMENT
-------------
                                X             Y             Z
Electronic contribution:     -1.15304      -0.15422       1.39709
Nuclear contribution   :      1.33933      -0.29971      -1.84988
                        -----------------------------------------
Total Dipole Moment    :      0.18629      -0.45392      -0.45280
                        -----------------------------------------
Magnitude (a.u.)       :      0.66766
Magnitude (Debye)      :      1.69706

Rotational constants in cm-1:     4.223810     0.841455     0.806035
Rotational constants in MHz : 126626.648469 25226.189450 24164.308296

                             ****ORCA TERMINATED NORMALLY****
TOTAL RUN TIME: 0 days 0 hours 0 minutes 47 seconds 522 msec
