                         Program Version 4.1.2  - RELEASE  -
|  1> #Run DFT-D3 single point of the dimer
|  2> ! wB97X-D3 def2-TZVP TIGHTSCF CHELPG PMODEL PAL8
|  3>
|  4> %base "4-75_DFT_AB"
|  5>
|  6> %scf
|  7> MaxIter 1000
|  8> end
|  9>
| 10> * xyz 0 1
| 11>   C                      4.024355             -6.801977            -8.916837
| 12>   O                      2.663368             -6.801153            -9.057764
| 13>   H                      2.302271             -5.971964            -8.723730
| 14>   H                      4.469199             -5.890253            -9.387422
| 15>   H                      4.195968             -6.701892            -7.838637
| 16>   H                      4.536072             -7.759296            -9.102608
| 17>   C                      3.951642             -8.742579            -5.025396
| 18>   O                      2.907428             -9.621250            -5.053495
| 19>   H                      3.116910             -10.352531           -4.440881
| 20>   H                      4.234448             -8.453185            -4.021377
| 21>   H                      4.835295             -9.253725            -5.545535
| 22>   H                      3.758733             -7.841400            -5.541155
| 23> *
| 24>
| 25> #Run DFT-D3 single point of the molecule with dimer basis set
| 26> $new_job
| 27> %base "4-75_DFT_A"
| 28> ! wB97X-D3 def2-TZVP TIGHTSCF CHELPG PMODEL
| 29>
| 30> %scf
| 31> MaxIter 1000
| 32> end
| 33>
| 34> * xyz 0 1
| 35>   C                      4.024355             -6.801977            -8.916837
| 36>   O                      2.663368             -6.801153            -9.057764
| 37>   H                      2.302271             -5.971964            -8.723730
| 38>   H                      4.469199             -5.890253            -9.387422
| 39>   H                      4.195968             -6.701892            -7.838637
| 40>   H                      4.536072             -7.759296            -9.102608
| 41>   C                    : 3.951642             -8.742579            -5.025396
| 42>   O                    : 2.907428             -9.621250            -5.053495
| 43>   H                    : 3.116910             -10.352531           -4.440881
| 44>   H                    : 4.234448             -8.453185            -4.021377
| 45>   H                    : 4.835295             -9.253725            -5.545535
| 46>   H                    : 3.758733             -7.841400            -5.541155
| 47> *
| 48>
| 49> #Run DFT-D3 single point of the particle with dimer basis set
| 50> $new_job
| 51> %base "4-75_DFT_B"
| 52> ! wB97X-D3 def2-TZVP TIGHTSCF CHELPG PMODEL
| 53>
| 54> %scf
| 55> MaxIter 1000
| 56> end
| 57>
| 58> * xyz 0 1
| 59>   C                    : 4.024355             -6.801977            -8.916837
| 60>   O                    : 2.663368             -6.801153            -9.057764
| 61>   H                    : 2.302271             -5.971964            -8.723730
| 62>   H                    : 4.469199             -5.890253            -9.387422
| 63>   H                    : 4.195968             -6.701892            -7.838637
| 64>   H                    : 4.536072             -7.759296            -9.102608
| 65>   C                      3.951642             -8.742579            -5.025396
| 66>   O                      2.907428             -9.621250            -5.053495
| 67>   H                      3.116910             -10.352531           -4.440881
| 68>   H                      4.234448             -8.453185            -4.021377
| 69>   H                      4.835295             -9.253725            -5.545535
| 70>   H                      3.758733             -7.841400            -5.541155
| 71> *
| 72>
| 73>                          ****END OF INPUT****
 Total Charge           Charge          ....    0
 Multiplicity           Mult            ....    1
 Number of Electrons    NEL             ....   36
Dispersion correction           -0.001163147
FINAL SINGLE POINT ENERGY      -231.459134387889
Dispersion correction           -0.000212364
FINAL SINGLE POINT ENERGY      -115.727493706202

CARTESIAN COORDINATES (ANGSTROEM)
---------------------------------
  C      4.024355   -6.801977   -8.916837
  O      2.663368   -6.801153   -9.057764
  H      2.302271   -5.971964   -8.723730
  H      4.469199   -5.890253   -9.387422
  H      4.195968   -6.701892   -7.838637
  H      4.536072   -7.759296   -9.102608
  C      3.951642   -8.742579   -5.025396
  O      2.907428   -9.621250   -5.053495
  H      3.116910  -10.352531   -4.440881
  H      4.234448   -8.453185   -4.021377
  H      4.835295   -9.253725   -5.545535
  H      3.758733   -7.841400   -5.541155

 Multiplicity           Mult            ....    1
 Number of Electrons    NEL             ....   18
 Basis Dimension        Dim             ....  172

ORBITAL ENERGIES
----------------

  NO   OCC          E(Eh)            E(eV)
   0   2.0000     -19.230856      -523.2982
   1   2.0000     -10.308285      -280.5027
   2   2.0000      -1.149613       -31.2826
   3   2.0000      -0.792418       -21.5628
   4   2.0000      -0.616237       -16.7687
   5   2.0000      -0.546327       -14.8663
   6   2.0000      -0.539401       -14.6779
   7   2.0000      -0.428951       -11.6724
   8   2.0000      -0.367464        -9.9992
   9   0.0000       0.088865         2.4182
  10   0.0000       0.114128         3.1056
  11   0.0000       0.154973         4.2170
  12   0.0000       0.169287         4.6065
  13   0.0000       0.191722         5.2170

MULLIKEN ATOMIC CHARGES
-----------------------
   0 C :    0.001394
   1 O :   -0.000072
   2 H :   -0.000034
   3 H :    0.000008
   4 H :   -0.001451
   5 H :   -0.000238
   6 C :   -0.152070
   7 O :   -0.460865
   8 H :    0.319758
   9 H :    0.090373
  10 H :    0.083400
  11 H :    0.119797
Sum of atomic charges:   -0.0000000

LOEWDIN ATOMIC CHARGES
----------------------
   0 C :   -0.000911
   1 O :   -0.000012
   2 H :   -0.000015
   3 H :   -0.000002
   4 H :   -0.002353
   5 H :   -0.000087
   6 C :   -0.423000
   7 O :   -0.047823
   8 H :    0.185115
   9 H :    0.089001
  10 H :    0.101109
  11 H :    0.098977

  Mayer bond orders larger than 0.1
B(  6-C ,  7-O ) :   1.0133 B(  6-C ,  9-H ) :   0.9752 B(  6-C , 10-H ) :   0.9883
B(  6-C , 11-H ) :   0.9697 B(  7-O ,  8-H ) :   0.8930

Dispersion correction           -0.000215332
FINAL SINGLE POINT ENERGY      -115.731562056534

DIPOLE MOMENT
-------------
                                X             Y             Z
Electronic contribution:     -1.58130      -0.98955      -0.09847
Nuclear contribution   :      2.06267       0.87722       0.50541
                        -----------------------------------------
Total Dipole Moment    :      0.48138      -0.11234       0.40695
                        -----------------------------------------
Magnitude (a.u.)       :      0.64027
Magnitude (Debye)      :      1.62744

Rotational constants in cm-1:     4.273719     0.875233     0.850403
Rotational constants in MHz : 128122.864884 26238.829795 25494.439609

                             ****ORCA TERMINATED NORMALLY****
TOTAL RUN TIME: 0 days 0 hours 1 minutes 31 seconds 566 msec
