                         Program Version 4.1.2  - RELEASE  -
|  1> #Run DFT-D3 single point of the dimer
|  2> ! wB97X-D3 def2-TZVP TIGHTSCF CHELPG PMODEL PAL8
|  3>
|  4> %base "16-24_DFT_AB"
|  5>
|  6> %scf
|  7> MaxIter 1000
|  8> end
|  9>
| 10> * xyz 0 1
| 11>   C                      4.271779             4.712240             5.343485
| 12>   O                      4.861457             5.690898             4.454410
| 13>   H                      4.587557             5.662843             3.570705
| 14>   H                      4.713760             3.664029             5.121006
| 15>   H                      4.705710             4.923602             6.335144
| 16>   H                      3.190266             4.808637             5.377588
| 17>   C                      0.073207             3.280420             4.744708
| 18>   O                      -0.777346            4.145417             5.499248
| 19>   H                      -0.465038            4.121903             6.407785
| 20>   H                      1.088714             3.540638             4.926400
| 21>   H                      0.023586             2.303060             5.157050
| 22>   H                      -0.040117            3.339934             3.648191
| 23> *
| 24>
| 25> #Run DFT-D3 single point of the molecule with dimer basis set
| 26> $new_job
| 27> %base "16-24_DFT_A"
| 28> ! wB97X-D3 def2-TZVP TIGHTSCF CHELPG PMODEL
| 29>
| 30> %scf
| 31> MaxIter 1000
| 32> end
| 33>
| 34> * xyz 0 1
| 35>   C                      4.271779             4.712240             5.343485
| 36>   O                      4.861457             5.690898             4.454410
| 37>   H                      4.587557             5.662843             3.570705
| 38>   H                      4.713760             3.664029             5.121006
| 39>   H                      4.705710             4.923602             6.335144
| 40>   H                      3.190266             4.808637             5.377588
| 41>   C                    : 0.073207             3.280420             4.744708
| 42>   O                    : -0.777346            4.145417             5.499248
| 43>   H                    : -0.465038            4.121903             6.407785
| 44>   H                    : 1.088714             3.540638             4.926400
| 45>   H                    : 0.023586             2.303060             5.157050
| 46>   H                    : -0.040117            3.339934             3.648191
| 47> *
| 48>
| 49> #Run DFT-D3 single point of the particle with dimer basis set
| 50> $new_job
| 51> %base "16-24_DFT_B"
| 52> ! wB97X-D3 def2-TZVP TIGHTSCF CHELPG PMODEL
| 53>
| 54> %scf
| 55> MaxIter 1000
| 56> end
| 57>
| 58> * xyz 0 1
| 59>   C                    : 4.271779             4.712240             5.343485
| 60>   O                    : 4.861457             5.690898             4.454410
| 61>   H                    : 4.587557             5.662843             3.570705
| 62>   H                    : 4.713760             3.664029             5.121006
| 63>   H                    : 4.705710             4.923602             6.335144
| 64>   H                    : 3.190266             4.808637             5.377588
| 65>   C                      0.073207             3.280420             4.744708
| 66>   O                      -0.777346            4.145417             5.499248
| 67>   H                      -0.465038            4.121903             6.407785
| 68>   H                      1.088714             3.540638             4.926400
| 69>   H                      0.023586             2.303060             5.157050
| 70>   H                      -0.040117            3.339934             3.648191
| 71> *
| 72>
| 73>                          ****END OF INPUT****
 Total Charge           Charge          ....    0
 Multiplicity           Mult            ....    1
 Number of Electrons    NEL             ....   36
Dispersion correction           -0.001116113
FINAL SINGLE POINT ENERGY      -231.459772130613
Dispersion correction           -0.000280228
FINAL SINGLE POINT ENERGY      -115.729144975140

CARTESIAN COORDINATES (ANGSTROEM)
---------------------------------
  C      4.271779    4.712240    5.343485
  O      4.861457    5.690898    4.454410
  H      4.587557    5.662843    3.570705
  H      4.713760    3.664029    5.121006
  H      4.705710    4.923602    6.335144
  H      3.190266    4.808637    5.377588
  C      0.073207    3.280420    4.744708
  O     -0.777346    4.145417    5.499248
  H     -0.465038    4.121903    6.407785
  H      1.088714    3.540638    4.926400
  H      0.023586    2.303060    5.157050
  H     -0.040117    3.339934    3.648191

 Multiplicity           Mult            ....    1
 Number of Electrons    NEL             ....   18
 Basis Dimension        Dim             ....  172

ORBITAL ENERGIES
----------------

  NO   OCC          E(Eh)            E(eV)
   0   2.0000     -19.228144      -523.2244
   1   2.0000     -10.308501      -280.5086
   2   2.0000      -1.131333       -30.7851
   3   2.0000      -0.799935       -21.7673
   4   2.0000      -0.611030       -16.6270
   5   2.0000      -0.544730       -14.8229
   6   2.0000      -0.524947       -14.2845
   7   2.0000      -0.437146       -11.8953
   8   2.0000      -0.370234       -10.0746
   9   0.0000       0.082036         2.2323
  10   0.0000       0.117607         3.2003
  11   0.0000       0.154676         4.2090
  12   0.0000       0.161429         4.3927
  13   0.0000       0.190228         5.1764

MULLIKEN ATOMIC CHARGES
-----------------------
   0 C :   -0.004624
   1 O :    0.000069
   2 H :    0.000013
   3 H :    0.000013
   4 H :    0.000143
   5 H :    0.007277
   6 C :   -0.173378
   7 O :   -0.476890
   8 H :    0.314587
   9 H :    0.093740
  10 H :    0.112095
  11 H :    0.126955
Sum of atomic charges:    0.0000000

LOEWDIN ATOMIC CHARGES
----------------------
   0 C :   -0.002191
   1 O :   -0.000013
   2 H :   -0.000006
   3 H :   -0.000082
   4 H :   -0.000014
   5 H :   -0.002870
   6 C :   -0.369132
   7 O :   -0.090062
   8 H :    0.169521
   9 H :    0.090536
  10 H :    0.090564
  11 H :    0.113750

  Mayer bond orders larger than 0.1
B(  6-C ,  7-O ) :   0.9877 B(  6-C ,  9-H ) :   0.9801 B(  6-C , 10-H ) :   0.9851
B(  6-C , 11-H ) :   0.9696 B(  7-O ,  8-H ) :   0.8990

Dispersion correction           -0.000222669
FINAL SINGLE POINT ENERGY      -115.730376730129

DIPOLE MOMENT
-------------
                                X             Y             Z
Electronic contribution:     -1.26774       1.10155       0.72698
Nuclear contribution   :      1.84508      -1.46371      -0.45696
                        -----------------------------------------
Total Dipole Moment    :      0.57734      -0.36216       0.27001
                        -----------------------------------------
Magnitude (a.u.)       :      0.73307
Magnitude (Debye)      :      1.86331

Rotational constants in cm-1:     4.432122     0.825982     0.786009
Rotational constants in MHz : 132871.677288 24762.332255 23563.970669

                             ****ORCA TERMINATED NORMALLY****
TOTAL RUN TIME: 0 days 0 hours 0 minutes 53 seconds 57 msec
