                         Program Version 4.1.2  - RELEASE  -
|  1> #Run DFT-D3 single point of the dimer
|  2> ! wB97X-D3 def2-TZVP TIGHTSCF CHELPG PMODEL PAL8
|  3>
|  4> %base "6-204_DFT_AB"
|  5>
|  6> %scf
|  7> MaxIter 1000
|  8> end
|  9>
| 10> * xyz 0 1
| 11>   C                      10.895019            6.531657             -6.355594
| 12>   O                      9.685644             5.754134             -6.415221
| 13>   H                      9.301084             5.789789             -7.336204
| 14>   H                      10.717590            7.557502             -5.882452
| 15>   H                      11.654161            5.986355             -5.825441
| 16>   H                      11.412275            6.696927             -7.304675
| 17>   C                      7.313492             5.352219             -3.875000
| 18>   O                      8.583517             5.934951             -3.688472
| 19>   H                      8.912932             5.914960             -4.629453
| 20>   H                      6.701947             5.408958             -2.954834
| 21>   H                      6.815108             5.840686             -4.748789
| 22>   H                      7.336305             4.377788             -4.229219
| 23> *
| 24>
| 25> #Run DFT-D3 single point of the molecule with dimer basis set
| 26> $new_job
| 27> %base "6-204_DFT_A"
| 28> ! wB97X-D3 def2-TZVP TIGHTSCF CHELPG PMODEL
| 29>
| 30> %scf
| 31> MaxIter 1000
| 32> end
| 33>
| 34> * xyz 0 1
| 35>   C                      10.895019            6.531657             -6.355594
| 36>   O                      9.685644             5.754134             -6.415221
| 37>   H                      9.301084             5.789789             -7.336204
| 38>   H                      10.717590            7.557502             -5.882452
| 39>   H                      11.654161            5.986355             -5.825441
| 40>   H                      11.412275            6.696927             -7.304675
| 41>   C                    : 7.313492             5.352219             -3.875000
| 42>   O                    : 8.583517             5.934951             -3.688472
| 43>   H                    : 8.912932             5.914960             -4.629453
| 44>   H                    : 6.701947             5.408958             -2.954834
| 45>   H                    : 6.815108             5.840686             -4.748789
| 46>   H                    : 7.336305             4.377788             -4.229219
| 47> *
| 48>
| 49> #Run DFT-D3 single point of the particle with dimer basis set
| 50> $new_job
| 51> %base "6-204_DFT_B"
| 52> ! wB97X-D3 def2-TZVP TIGHTSCF CHELPG PMODEL
| 53>
| 54> %scf
| 55> MaxIter 1000
| 56> end
| 57>
| 58> * xyz 0 1
| 59>   C                    : 10.895019            6.531657             -6.355594
| 60>   O                    : 9.685644             5.754134             -6.415221
| 61>   H                    : 9.301084             5.789789             -7.336204
| 62>   H                    : 10.717590            7.557502             -5.882452
| 63>   H                    : 11.654161            5.986355             -5.825441
| 64>   H                    : 11.412275            6.696927             -7.304675
| 65>   C                      7.313492             5.352219             -3.875000
| 66>   O                      8.583517             5.934951             -3.688472
| 67>   H                      8.912932             5.914960             -4.629453
| 68>   H                      6.701947             5.408958             -2.954834
| 69>   H                      6.815108             5.840686             -4.748789
| 70>   H                      7.336305             4.377788             -4.229219
| 71> *
| 72>
| 73>                          ****END OF INPUT****
 Total Charge           Charge          ....    0
 Multiplicity           Mult            ....    1
 Number of Electrons    NEL             ....   36
Dispersion correction           -0.001806579
FINAL SINGLE POINT ENERGY      -231.467645482896
Dispersion correction           -0.000284439
FINAL SINGLE POINT ENERGY      -115.730807203377

CARTESIAN COORDINATES (ANGSTROEM)
---------------------------------
  C     10.895019    6.531657   -6.355594
  O      9.685644    5.754134   -6.415221
  H      9.301084    5.789789   -7.336204
  H     10.717590    7.557502   -5.882452
  H     11.654161    5.986355   -5.825441
  H     11.412275    6.696927   -7.304675
  C      7.313492    5.352219   -3.875000
  O      8.583517    5.934951   -3.688472
  H      8.912932    5.914960   -4.629453
  H      6.701947    5.408958   -2.954834
  H      6.815108    5.840686   -4.748789
  H      7.336305    4.377788   -4.229219

 Multiplicity           Mult            ....    1
 Number of Electrons    NEL             ....   18
 Basis Dimension        Dim             ....  172

ORBITAL ENERGIES
----------------

  NO   OCC          E(Eh)            E(eV)
   0   2.0000     -19.236871      -523.4619
   1   2.0000     -10.310689      -280.5681
   2   2.0000      -1.137586       -30.9553
   3   2.0000      -0.792107       -21.5543
   4   2.0000      -0.615084       -16.7373
   5   2.0000      -0.535729       -14.5779
   6   2.0000      -0.526221       -14.3192
   7   2.0000      -0.448045       -12.1919
   8   2.0000      -0.369654       -10.0588
   9   0.0000       0.067029         1.8240
  10   0.0000       0.125472         3.4143
  11   0.0000       0.156148         4.2490
  12   0.0000       0.168288         4.5793
  13   0.0000       0.189367         5.1529

MULLIKEN ATOMIC CHARGES
-----------------------
   0 C :    0.000161
   1 O :   -0.002744
   2 H :   -0.000086
   3 H :   -0.001058
   4 H :   -0.000235
   5 H :    0.000116
   6 C :   -0.188089
   7 O :   -0.456028
   8 H :    0.314847
   9 H :    0.124488
  10 H :    0.096515
  11 H :    0.112113
Sum of atomic charges:   -0.0000000

LOEWDIN ATOMIC CHARGES
----------------------
   0 C :   -0.006758
   1 O :   -0.018746
   2 H :   -0.000813
   3 H :   -0.000952
   4 H :   -0.000367
   5 H :   -0.000085
   6 C :   -0.396735
   7 O :   -0.076286
   8 H :    0.208118
   9 H :    0.112191
  10 H :    0.099386
  11 H :    0.081048

  Mayer bond orders larger than 0.1
B(  6-C ,  7-O ) :   0.9958 B(  6-C ,  9-H ) :   0.9724 B(  6-C , 10-H ) :   0.9888
B(  6-C , 11-H ) :   0.9691 B(  7-O ,  8-H ) :   0.9035

Dispersion correction           -0.000210276
FINAL SINGLE POINT ENERGY      -115.727479035908

DIPOLE MOMENT
-------------
                                X             Y             Z
Electronic contribution:      1.66756       0.71941       0.58036
Nuclear contribution   :     -1.95041      -0.97816      -1.21885
                        -----------------------------------------
Total Dipole Moment    :     -0.28285      -0.25874      -0.63849
                        -----------------------------------------
Magnitude (a.u.)       :      0.74473
Magnitude (Debye)      :      1.89294

Rotational constants in cm-1:     4.218058     0.854593     0.800480
Rotational constants in MHz : 126454.202737 25620.052762 23997.787893

                             ****ORCA TERMINATED NORMALLY****
TOTAL RUN TIME: 0 days 0 hours 1 minutes 6 seconds 701 msec
