                         Program Version 4.1.2  - RELEASE  -
|  1> #Run DFT-D3 single point of the dimer
|  2> ! wB97X-D3 def2-TZVP TIGHTSCF CHELPG PMODEL PAL8
|  3>
|  4> %base "14-170_DFT_AB"
|  5>
|  6> %scf
|  7> MaxIter 1000
|  8> end
|  9>
| 10> * xyz 0 1
| 11>   C                      -2.110928            11.390825            7.574175
| 12>   O                      -1.303257            10.316187            7.707575
| 13>   H                      -1.872668            9.562282             7.848446
| 14>   H                      -1.498166            12.268386            7.471384
| 15>   H                      -2.755923            11.272451            6.697372
| 16>   H                      -2.764465            11.399083            8.410064
| 17>   C                      -4.147170            7.823411             6.874374
| 18>   O                      -4.410788            9.215313             6.804372
| 19>   H                      -4.681902            9.463682             7.702422
| 20>   H                      -5.066764            7.234937             7.221026
| 21>   H                      -4.034257            7.479906             5.912013
| 22>   H                      -3.313547            7.589338             7.539297
| 23> *
| 24>
| 25> #Run DFT-D3 single point of the molecule with dimer basis set
| 26> $new_job
| 27> %base "14-170_DFT_A"
| 28> ! wB97X-D3 def2-TZVP TIGHTSCF CHELPG PMODEL
| 29>
| 30> %scf
| 31> MaxIter 1000
| 32> end
| 33>
| 34> * xyz 0 1
| 35>   C                      -2.110928            11.390825            7.574175
| 36>   O                      -1.303257            10.316187            7.707575
| 37>   H                      -1.872668            9.562282             7.848446
| 38>   H                      -1.498166            12.268386            7.471384
| 39>   H                      -2.755923            11.272451            6.697372
| 40>   H                      -2.764465            11.399083            8.410064
| 41>   C                    : -4.147170            7.823411             6.874374
| 42>   O                    : -4.410788            9.215313             6.804372
| 43>   H                    : -4.681902            9.463682             7.702422
| 44>   H                    : -5.066764            7.234937             7.221026
| 45>   H                    : -4.034257            7.479906             5.912013
| 46>   H                    : -3.313547            7.589338             7.539297
| 47> *
| 48>
| 49> #Run DFT-D3 single point of the particle with dimer basis set
| 50> $new_job
| 51> %base "14-170_DFT_B"
| 52> ! wB97X-D3 def2-TZVP TIGHTSCF CHELPG PMODEL
| 53>
| 54> %scf
| 55> MaxIter 1000
| 56> end
| 57>
| 58> * xyz 0 1
| 59>   C                    : -2.110928            11.390825            7.574175
| 60>   O                    : -1.303257            10.316187            7.707575
| 61>   H                    : -1.872668            9.562282             7.848446
| 62>   H                    : -1.498166            12.268386            7.471384
| 63>   H                    : -2.755923            11.272451            6.697372
| 64>   H                    : -2.764465            11.399083            8.410064
| 65>   C                      -4.147170            7.823411             6.874374
| 66>   O                      -4.410788            9.215313             6.804372
| 67>   H                      -4.681902            9.463682             7.702422
| 68>   H                      -5.066764            7.234937             7.221026
| 69>   H                      -4.034257            7.479906             5.912013
| 70>   H                      -3.313547            7.589338             7.539297
| 71> *
| 72>
| 73>                          ****END OF INPUT****
 Total Charge           Charge          ....    0
 Multiplicity           Mult            ....    1
 Number of Electrons    NEL             ....   36
Dispersion correction           -0.002153864
FINAL SINGLE POINT ENERGY      -231.464947882877
Dispersion correction           -0.000183336
FINAL SINGLE POINT ENERGY      -115.730780384627

CARTESIAN COORDINATES (ANGSTROEM)
---------------------------------
  C     -2.110928   11.390825    7.574175
  O     -1.303257   10.316187    7.707575
  H     -1.872668    9.562282    7.848446
  H     -1.498166   12.268386    7.471384
  H     -2.755923   11.272451    6.697372
  H     -2.764465   11.399083    8.410064
  C     -4.147170    7.823411    6.874374
  O     -4.410788    9.215313    6.804372
  H     -4.681902    9.463682    7.702422
  H     -5.066764    7.234937    7.221026
  H     -4.034257    7.479906    5.912013
  H     -3.313547    7.589338    7.539297

 Multiplicity           Mult            ....    1
 Number of Electrons    NEL             ....   18
 Basis Dimension        Dim             ....  172

ORBITAL ENERGIES
----------------

  NO   OCC          E(Eh)            E(eV)
   0   2.0000     -19.234018      -523.3842
   1   2.0000     -10.311557      -280.5917
   2   2.0000      -1.136170       -30.9167
   3   2.0000      -0.797174       -21.6922
   4   2.0000      -0.608303       -16.5528
   5   2.0000      -0.547788       -14.9061
   6   2.0000      -0.524055       -14.2603
   7   2.0000      -0.439712       -11.9652
   8   2.0000      -0.374570       -10.1926
   9   0.0000       0.090099         2.4517
  10   0.0000       0.132423         3.6034
  11   0.0000       0.149456         4.0669
  12   0.0000       0.177787         4.8378
  13   0.0000       0.197960         5.3868

MULLIKEN ATOMIC CHARGES
-----------------------
   0 C :   -0.003625
   1 O :    0.001530
   2 H :   -0.002750
   3 H :   -0.000960
   4 H :   -0.004339
   5 H :   -0.002197
   6 C :   -0.173364
   7 O :   -0.460042
   8 H :    0.316462
   9 H :    0.095811
  10 H :    0.126477
  11 H :    0.106997
Sum of atomic charges:    0.0000000

LOEWDIN ATOMIC CHARGES
----------------------
   0 C :   -0.012536
   1 O :   -0.000783
   2 H :   -0.005279
   3 H :   -0.000183
   4 H :   -0.008612
   5 H :   -0.001810
   6 C :   -0.379713
   7 O :   -0.061313
   8 H :    0.177620
   9 H :    0.104073
  10 H :    0.092809
  11 H :    0.095728

  Mayer bond orders larger than 0.1
B(  6-C ,  7-O ) :   0.9991 B(  6-C ,  9-H ) :   0.9772 B(  6-C , 10-H ) :   0.9773
B(  6-C , 11-H ) :   0.9710 B(  7-O ,  8-H ) :   0.8983

Dispersion correction           -0.000234910
FINAL SINGLE POINT ENERGY      -115.732248603009

DIPOLE MOMENT
-------------
                                X             Y             Z
Electronic contribution:     -0.15109       1.80700      -0.29812
Nuclear contribution   :      0.07580      -2.20911       0.84970
                        -----------------------------------------
Total Dipole Moment    :     -0.07529      -0.40211       0.55159
                        -----------------------------------------
Magnitude (a.u.)       :      0.68674
Magnitude (Debye)      :      1.74555

Rotational constants in cm-1:     4.262957     0.828652     0.805039
Rotational constants in MHz : 127800.231623 24842.371519 24134.470022

                             ****ORCA TERMINATED NORMALLY****
TOTAL RUN TIME: 0 days 0 hours 1 minutes 5 seconds 54 msec
