                         Program Version 4.1.2  - RELEASE  -
|  1> #Run DFT-D3 single point of the dimer
|  2> ! wB97X-D3 def2-TZVP TIGHTSCF CHELPG PMODEL PAL8
|  3>
|  4> %base "18-114_DFT_AB"
|  5>
|  6> %scf
|  7> MaxIter 1000
|  8> end
|  9>
| 10> * xyz 0 1
| 11>   C                      1.536306             -11.056976           -5.681817
| 12>   O                      1.443532             -9.917052            -6.467092
| 13>   H                      2.378982             -9.721470            -6.647489
| 14>   H                      0.576598             -11.390417           -5.272839
| 15>   H                      1.904503             -11.918158           -6.229317
| 16>   H                      2.254301             -10.950616           -4.839417
| 17>   C                      4.032736             -6.967960            -6.716628
| 18>   O                      3.995714             -7.928267            -7.704090
| 19>   H                      4.878147             -8.046026            -8.041079
| 20>   H                      4.645797             -6.216006            -7.105603
| 21>   H                      3.024151             -6.574050            -6.466986
| 22>   H                      4.565890             -7.324431            -5.808960
| 23> *
| 24>
| 25> #Run DFT-D3 single point of the molecule with dimer basis set
| 26> $new_job
| 27> %base "18-114_DFT_A"
| 28> ! wB97X-D3 def2-TZVP TIGHTSCF CHELPG PMODEL
| 29>
| 30> %scf
| 31> MaxIter 1000
| 32> end
| 33>
| 34> * xyz 0 1
| 35>   C                      1.536306             -11.056976           -5.681817
| 36>   O                      1.443532             -9.917052            -6.467092
| 37>   H                      2.378982             -9.721470            -6.647489
| 38>   H                      0.576598             -11.390417           -5.272839
| 39>   H                      1.904503             -11.918158           -6.229317
| 40>   H                      2.254301             -10.950616           -4.839417
| 41>   C                    : 4.032736             -6.967960            -6.716628
| 42>   O                    : 3.995714             -7.928267            -7.704090
| 43>   H                    : 4.878147             -8.046026            -8.041079
| 44>   H                    : 4.645797             -6.216006            -7.105603
| 45>   H                    : 3.024151             -6.574050            -6.466986
| 46>   H                    : 4.565890             -7.324431            -5.808960
| 47> *
| 48>
| 49> #Run DFT-D3 single point of the particle with dimer basis set
| 50> $new_job
| 51> %base "18-114_DFT_B"
| 52> ! wB97X-D3 def2-TZVP TIGHTSCF CHELPG PMODEL
| 53>
| 54> %scf
| 55> MaxIter 1000
| 56> end
| 57>
| 58> * xyz 0 1
| 59>   C                    : 1.536306             -11.056976           -5.681817
| 60>   O                    : 1.443532             -9.917052            -6.467092
| 61>   H                    : 2.378982             -9.721470            -6.647489
| 62>   H                    : 0.576598             -11.390417           -5.272839
| 63>   H                    : 1.904503             -11.918158           -6.229317
| 64>   H                    : 2.254301             -10.950616           -4.839417
| 65>   C                      4.032736             -6.967960            -6.716628
| 66>   O                      3.995714             -7.928267            -7.704090
| 67>   H                      4.878147             -8.046026            -8.041079
| 68>   H                      4.645797             -6.216006            -7.105603
| 69>   H                      3.024151             -6.574050            -6.466986
| 70>   H                      4.565890             -7.324431            -5.808960
| 71> *
| 72>
| 73>                          ****END OF INPUT****
 Total Charge           Charge          ....    0
 Multiplicity           Mult            ....    1
 Number of Electrons    NEL             ....   36
Dispersion correction           -0.001356105
FINAL SINGLE POINT ENERGY      -231.468617203673
Dispersion correction           -0.000221920
FINAL SINGLE POINT ENERGY      -115.733852789874

CARTESIAN COORDINATES (ANGSTROEM)
---------------------------------
  C      1.536306  -11.056976   -5.681817
  O      1.443532   -9.917052   -6.467092
  H      2.378982   -9.721470   -6.647489
  H      0.576598  -11.390417   -5.272839
  H      1.904503  -11.918158   -6.229317
  H      2.254301  -10.950616   -4.839417
  C      4.032736   -6.967960   -6.716628
  O      3.995714   -7.928267   -7.704090
  H      4.878147   -8.046026   -8.041079
  H      4.645797   -6.216006   -7.105603
  H      3.024151   -6.574050   -6.466986
  H      4.565890   -7.324431   -5.808960

 Multiplicity           Mult            ....    1
 Number of Electrons    NEL             ....   18
 Basis Dimension        Dim             ....  172

ORBITAL ENERGIES
----------------

  NO   OCC          E(Eh)            E(eV)
   0   2.0000     -19.226636      -523.1834
   1   2.0000     -10.307996      -280.4948
   2   2.0000      -1.149458       -31.2783
   3   2.0000      -0.794350       -21.6154
   4   2.0000      -0.621426       -16.9099
   5   2.0000      -0.544927       -14.8282
   6   2.0000      -0.536241       -14.5919
   7   2.0000      -0.431711       -11.7474
   8   2.0000      -0.367674       -10.0049
   9   0.0000       0.094621         2.5748
  10   0.0000       0.117138         3.1875
  11   0.0000       0.157255         4.2791
  12   0.0000       0.185280         5.0417
  13   0.0000       0.195087         5.3086

MULLIKEN ATOMIC CHARGES
-----------------------
   0 C :   -0.000162
   1 O :    0.000227
   2 H :   -0.005555
   3 H :   -0.000024
   4 H :    0.000024
   5 H :    0.000048
   6 C :   -0.150657
   7 O :   -0.464827
   8 H :    0.312864
   9 H :    0.103381
  10 H :    0.115660
  11 H :    0.089021
Sum of atomic charges:    0.0000000

LOEWDIN ATOMIC CHARGES
----------------------
   0 C :   -0.000163
   1 O :   -0.000711
   2 H :   -0.010120
   3 H :   -0.000004
   4 H :   -0.000002
   5 H :   -0.000006
   6 C :   -0.407611
   7 O :   -0.042229
   8 H :    0.167091
   9 H :    0.086452
  10 H :    0.112436
  11 H :    0.094868

  Mayer bond orders larger than 0.1
B(  6-C ,  7-O ) :   0.9856 B(  6-C ,  9-H ) :   0.9896 B(  6-C , 10-H ) :   0.9718
B(  6-C , 11-H ) :   0.9743 B(  7-O ,  8-H ) :   0.8983

Dispersion correction           -0.000207513
FINAL SINGLE POINT ENERGY      -115.730483782861

DIPOLE MOMENT
-------------
                                X             Y             Z
Electronic contribution:     -0.28075      -1.23293      -1.25545
Nuclear contribution   :      0.87485       1.55568       1.38715
                        -----------------------------------------
Total Dipole Moment    :      0.59411       0.32275       0.13170
                        -----------------------------------------
Magnitude (a.u.)       :      0.68882
Magnitude (Debye)      :      1.75084

Rotational constants in cm-1:     4.319677     0.877746     0.837202
Rotational constants in MHz : 129500.653839 26314.149298 25098.692068

                             ****ORCA TERMINATED NORMALLY****
TOTAL RUN TIME: 0 days 0 hours 1 minutes 6 seconds 735 msec
