                         Program Version 4.1.2  - RELEASE  -
|  1> #Run DFT-D3 single point of the dimer
|  2> ! wB97X-D3 def2-TZVP TIGHTSCF CHELPG PMODEL PAL8
|  3>
|  4> %base "7-61_DFT_AB"
|  5>
|  6> %scf
|  7> MaxIter 1000
|  8> end
|  9>
| 10> * xyz 0 1
| 11>   C                      -1.585404            3.392058             7.212129
| 12>   O                      -2.120105            3.744945             8.520689
| 13>   H                      -1.462705            3.477092             9.167592
| 14>   H                      -2.311762            3.531126             6.455074
| 15>   H                      -0.759444            4.075805             6.822156
| 16>   H                      -1.228848            2.336794             7.215379
| 17>   C                      1.536890             6.629011             5.519386
| 18>   O                      0.725455             7.687187             5.987546
| 19>   H                      0.091693             7.294986             6.653605
| 20>   H                      1.917909             6.062887             6.367477
| 21>   H                      0.971347             5.888742             4.873822
| 22>   H                      2.438145             6.869504             4.946360
| 23> *
| 24>
| 25> #Run DFT-D3 single point of the molecule with dimer basis set
| 26> $new_job
| 27> %base "7-61_DFT_A"
| 28> ! wB97X-D3 def2-TZVP TIGHTSCF CHELPG PMODEL
| 29>
| 30> %scf
| 31> MaxIter 1000
| 32> end
| 33>
| 34> * xyz 0 1
| 35>   C                      -1.585404            3.392058             7.212129
| 36>   O                      -2.120105            3.744945             8.520689
| 37>   H                      -1.462705            3.477092             9.167592
| 38>   H                      -2.311762            3.531126             6.455074
| 39>   H                      -0.759444            4.075805             6.822156
| 40>   H                      -1.228848            2.336794             7.215379
| 41>   C                    : 1.536890             6.629011             5.519386
| 42>   O                    : 0.725455             7.687187             5.987546
| 43>   H                    : 0.091693             7.294986             6.653605
| 44>   H                    : 1.917909             6.062887             6.367477
| 45>   H                    : 0.971347             5.888742             4.873822
| 46>   H                    : 2.438145             6.869504             4.946360
| 47> *
| 48>
| 49> #Run DFT-D3 single point of the particle with dimer basis set
| 50> $new_job
| 51> %base "7-61_DFT_B"
| 52> ! wB97X-D3 def2-TZVP TIGHTSCF CHELPG PMODEL
| 53>
| 54> %scf
| 55> MaxIter 1000
| 56> end
| 57>
| 58> * xyz 0 1
| 59>   C                    : -1.585404            3.392058             7.212129
| 60>   O                    : -2.120105            3.744945             8.520689
| 61>   H                    : -1.462705            3.477092             9.167592
| 62>   H                    : -2.311762            3.531126             6.455074
| 63>   H                    : -0.759444            4.075805             6.822156
| 64>   H                    : -1.228848            2.336794             7.215379
| 65>   C                      1.536890             6.629011             5.519386
| 66>   O                      0.725455             7.687187             5.987546
| 67>   H                      0.091693             7.294986             6.653605
| 68>   H                      1.917909             6.062887             6.367477
| 69>   H                      0.971347             5.888742             4.873822
| 70>   H                      2.438145             6.869504             4.946360
| 71> *
| 72>
| 73>                          ****END OF INPUT****
 Total Charge           Charge          ....    0
 Multiplicity           Mult            ....    1
 Number of Electrons    NEL             ....   36
Dispersion correction           -0.001096905
FINAL SINGLE POINT ENERGY      -231.462948778573
Dispersion correction           -0.000275674
FINAL SINGLE POINT ENERGY      -115.731798585785

CARTESIAN COORDINATES (ANGSTROEM)
---------------------------------
  C     -1.585404    3.392058    7.212129
  O     -2.120105    3.744945    8.520689
  H     -1.462705    3.477092    9.167592
  H     -2.311762    3.531126    6.455074
  H     -0.759444    4.075805    6.822156
  H     -1.228848    2.336794    7.215379
  C      1.536890    6.629011    5.519386
  O      0.725455    7.687187    5.987546
  H      0.091693    7.294986    6.653605
  H      1.917909    6.062887    6.367477
  H      0.971347    5.888742    4.873822
  H      2.438145    6.869504    4.946360

 Multiplicity           Mult            ....    1
 Number of Electrons    NEL             ....   18
 Basis Dimension        Dim             ....  172

ORBITAL ENERGIES
----------------

  NO   OCC          E(Eh)            E(eV)
   0   2.0000     -19.236353      -523.4478
   1   2.0000     -10.317041      -280.7410
   2   2.0000      -1.131245       -30.7827
   3   2.0000      -0.791110       -21.5272
   4   2.0000      -0.606581       -16.5059
   5   2.0000      -0.535600       -14.5744
   6   2.0000      -0.532478       -14.4895
   7   2.0000      -0.429354       -11.6833
   8   2.0000      -0.371970       -10.1218
   9   0.0000       0.073858         2.0098
  10   0.0000       0.114687         3.1208
  11   0.0000       0.143472         3.9041
  12   0.0000       0.161369         4.3911
  13   0.0000       0.192904         5.2492

MULLIKEN ATOMIC CHARGES
-----------------------
   0 C :   -0.000440
   1 O :    0.000008
   2 H :   -0.000000
   3 H :   -0.000013
   4 H :    0.000551
   5 H :    0.000032
   6 C :   -0.180127
   7 O :   -0.471954
   8 H :    0.322367
   9 H :    0.104069
  10 H :    0.096733
  11 H :    0.128775
Sum of atomic charges:   -0.0000000

LOEWDIN ATOMIC CHARGES
----------------------
   0 C :   -0.000249
   1 O :   -0.000004
   2 H :   -0.000001
   3 H :   -0.000008
   4 H :   -0.000553
   5 H :   -0.000003
   6 C :   -0.401082
   7 O :   -0.093557
   8 H :    0.195815
   9 H :    0.093264
  10 H :    0.098410
  11 H :    0.107969

  Mayer bond orders larger than 0.1
B(  6-C ,  7-O ) :   1.0005 B(  6-C ,  9-H ) :   0.9836 B(  6-C , 10-H ) :   0.9736
B(  6-C , 11-H ) :   0.9689 B(  7-O ,  8-H ) :   0.8902

Dispersion correction           -0.000252767
FINAL SINGLE POINT ENERGY      -115.730391964447

DIPOLE MOMENT
-------------
                                X             Y             Z
Electronic contribution:     -0.96568       1.65206       0.49713
Nuclear contribution   :      0.91735      -2.30275      -0.24777
                        -----------------------------------------
Total Dipole Moment    :     -0.04833      -0.65069       0.24936
                        -----------------------------------------
Magnitude (a.u.)       :      0.69851
Magnitude (Debye)      :      1.77546

Rotational constants in cm-1:     4.302811     0.815818     0.788765
Rotational constants in MHz : 128995.042638 24457.622577 23646.577325

                             ****ORCA TERMINATED NORMALLY****
TOTAL RUN TIME: 0 days 0 hours 1 minutes 5 seconds 175 msec
