                         Program Version 4.1.2  - RELEASE  -
|  1> #Run DFT-D3 single point of the dimer
|  2> ! wB97X-D3 def2-TZVP TIGHTSCF CHELPG PMODEL PAL8
|  3>
|  4> %base "20-133_DFT_AB"
|  5>
|  6> %scf
|  7> MaxIter 1000
|  8> end
|  9>
| 10> * xyz 0 1
| 11>   C                      2.644582             -4.496149            4.921701
| 12>   O                      1.571882             -5.465876            5.016327
| 13>   H                      0.734321             -5.043278            5.354497
| 14>   H                      3.257729             -4.554362            5.857195
| 15>   H                      3.420873             -4.747145            4.172869
| 16>   H                      2.283139             -3.498105            4.678804
| 17>   C                      -1.797046            -4.013629            6.412944
| 18>   O                      -0.795036            -4.973618            6.750432
| 19>   H                      -0.643296            -5.071644            7.705553
| 20>   H                      -1.606571            -3.033322            6.892368
| 21>   H                      -1.940865            -3.918832            5.324172
| 22>   H                      -2.766463            -4.355614            6.819624
| 23> *
| 24>
| 25> #Run DFT-D3 single point of the molecule with dimer basis set
| 26> $new_job
| 27> %base "20-133_DFT_A"
| 28> ! wB97X-D3 def2-TZVP TIGHTSCF CHELPG PMODEL
| 29>
| 30> %scf
| 31> MaxIter 1000
| 32> end
| 33>
| 34> * xyz 0 1
| 35>   C                      2.644582             -4.496149            4.921701
| 36>   O                      1.571882             -5.465876            5.016327
| 37>   H                      0.734321             -5.043278            5.354497
| 38>   H                      3.257729             -4.554362            5.857195
| 39>   H                      3.420873             -4.747145            4.172869
| 40>   H                      2.283139             -3.498105            4.678804
| 41>   C                    : -1.797046            -4.013629            6.412944
| 42>   O                    : -0.795036            -4.973618            6.750432
| 43>   H                    : -0.643296            -5.071644            7.705553
| 44>   H                    : -1.606571            -3.033322            6.892368
| 45>   H                    : -1.940865            -3.918832            5.324172
| 46>   H                    : -2.766463            -4.355614            6.819624
| 47> *
| 48>
| 49> #Run DFT-D3 single point of the particle with dimer basis set
| 50> $new_job
| 51> %base "20-133_DFT_B"
| 52> ! wB97X-D3 def2-TZVP TIGHTSCF CHELPG PMODEL
| 53>
| 54> %scf
| 55> MaxIter 1000
| 56> end
| 57>
| 58> * xyz 0 1
| 59>   C                    : 2.644582             -4.496149            4.921701
| 60>   O                    : 1.571882             -5.465876            5.016327
| 61>   H                    : 0.734321             -5.043278            5.354497
| 62>   H                    : 3.257729             -4.554362            5.857195
| 63>   H                    : 3.420873             -4.747145            4.172869
| 64>   H                    : 2.283139             -3.498105            4.678804
| 65>   C                      -1.797046            -4.013629            6.412944
| 66>   O                      -0.795036            -4.973618            6.750432
| 67>   H                      -0.643296            -5.071644            7.705553
| 68>   H                      -1.606571            -3.033322            6.892368
| 69>   H                      -1.940865            -3.918832            5.324172
| 70>   H                      -2.766463            -4.355614            6.819624
| 71> *
| 72>
| 73>                          ****END OF INPUT****
 Total Charge           Charge          ....    0
 Multiplicity           Mult            ....    1
 Number of Electrons    NEL             ....   36
Dispersion correction           -0.001567512
FINAL SINGLE POINT ENERGY      -231.471114461420
Dispersion correction           -0.000278783
FINAL SINGLE POINT ENERGY      -115.730149233662

CARTESIAN COORDINATES (ANGSTROEM)
---------------------------------
  C      2.644582   -4.496149    4.921701
  O      1.571882   -5.465876    5.016327
  H      0.734321   -5.043278    5.354497
  H      3.257729   -4.554362    5.857195
  H      3.420873   -4.747145    4.172869
  H      2.283139   -3.498105    4.678804
  C     -1.797046   -4.013629    6.412944
  O     -0.795036   -4.973618    6.750432
  H     -0.643296   -5.071644    7.705553
  H     -1.606571   -3.033322    6.892368
  H     -1.940865   -3.918832    5.324172
  H     -2.766463   -4.355614    6.819624

 Multiplicity           Mult            ....    1
 Number of Electrons    NEL             ....   18
 Basis Dimension        Dim             ....  172

ORBITAL ENERGIES
----------------

  NO   OCC          E(Eh)            E(eV)
   0   2.0000     -19.228777      -523.2416
   1   2.0000     -10.319350      -280.8038
   2   2.0000      -1.125710       -30.6321
   3   2.0000      -0.795197       -21.6384
   4   2.0000      -0.607877       -16.5412
   5   2.0000      -0.535384       -14.5685
   6   2.0000      -0.528919       -14.3926
   7   2.0000      -0.427790       -11.6407
   8   2.0000      -0.370161       -10.0726
   9   0.0000       0.097156         2.6438
  10   0.0000       0.121355         3.3022
  11   0.0000       0.148659         4.0452
  12   0.0000       0.187701         5.1076
  13   0.0000       0.200679         5.4607

MULLIKEN ATOMIC CHARGES
-----------------------
   0 C :   -0.002465
   1 O :    0.000685
   2 H :   -0.005961
   3 H :    0.000059
   4 H :   -0.000180
   5 H :    0.000004
   6 C :   -0.148158
   7 O :   -0.489287
   8 H :    0.317894
   9 H :    0.101643
  10 H :    0.128580
  11 H :    0.097185
Sum of atomic charges:    0.0000000

LOEWDIN ATOMIC CHARGES
----------------------
   0 C :   -0.001612
   1 O :   -0.004838
   2 H :   -0.031786
   3 H :   -0.000073
   4 H :   -0.000052
   5 H :   -0.000083
   6 C :   -0.373244
   7 O :   -0.066975
   8 H :    0.173275
   9 H :    0.096651
  10 H :    0.112287
  11 H :    0.096450

  Mayer bond orders larger than 0.1
B(  6-C ,  7-O ) :   0.9827 B(  6-C ,  9-H ) :   0.9743 B(  6-C , 10-H ) :   0.9710
B(  6-C , 11-H ) :   0.9771 B(  7-O ,  8-H ) :   0.8898

Dispersion correction           -0.000260761
FINAL SINGLE POINT ENERGY      -115.734179513742

DIPOLE MOMENT
-------------
                                X             Y             Z
Electronic contribution:      1.34232      -1.19451       0.21310
Nuclear contribution   :     -1.68079       1.52539       0.26350
                        -----------------------------------------
Total Dipole Moment    :     -0.33847       0.33088       0.47659
                        -----------------------------------------
Magnitude (a.u.)       :      0.67170
Magnitude (Debye)      :      1.70734

Rotational constants in cm-1:     4.291330     0.808641     0.777720
Rotational constants in MHz : 128650.844495 24242.454210 23315.449933

                             ****ORCA TERMINATED NORMALLY****
TOTAL RUN TIME: 0 days 0 hours 0 minutes 56 seconds 556 msec
