                         Program Version 4.1.2  - RELEASE  -
|  1> #Run DFT-D3 single point of the dimer
|  2> ! wB97X-D3 def2-TZVP TIGHTSCF CHELPG PMODEL PAL8
|  3>
|  4> %base "13-43_DFT_AB"
|  5>
|  6> %scf
|  7> MaxIter 1000
|  8> end
|  9>
| 10> * xyz 0 1
| 11>   C                      2.238468             -1.442492            -1.376394
| 12>   O                      1.121689             -1.733540            -0.514272
| 13>   H                      1.431541             -2.499082            -0.058163
| 14>   H                      3.190386             -1.760322            -0.835746
| 15>   H                      2.025457             -1.974779            -2.354060
| 16>   H                      2.293692             -0.377440            -1.575006
| 17>   C                      -0.695942            -1.118168            -4.644641
| 18>   O                      -0.689851            0.124149             -5.212528
| 19>   H                      -0.049258            0.673570             -4.677234
| 20>   H                      -0.102550            -1.842898            -5.168804
| 21>   H                      -0.440777            -1.019185            -3.624721
| 22>   H                      -1.700991            -1.589887            -4.669325
| 23> *
| 24>
| 25> #Run DFT-D3 single point of the molecule with dimer basis set
| 26> $new_job
| 27> %base "13-43_DFT_A"
| 28> ! wB97X-D3 def2-TZVP TIGHTSCF CHELPG PMODEL
| 29>
| 30> %scf
| 31> MaxIter 1000
| 32> end
| 33>
| 34> * xyz 0 1
| 35>   C                      2.238468             -1.442492            -1.376394
| 36>   O                      1.121689             -1.733540            -0.514272
| 37>   H                      1.431541             -2.499082            -0.058163
| 38>   H                      3.190386             -1.760322            -0.835746
| 39>   H                      2.025457             -1.974779            -2.354060
| 40>   H                      2.293692             -0.377440            -1.575006
| 41>   C                    : -0.695942            -1.118168            -4.644641
| 42>   O                    : -0.689851            0.124149             -5.212528
| 43>   H                    : -0.049258            0.673570             -4.677234
| 44>   H                    : -0.102550            -1.842898            -5.168804
| 45>   H                    : -0.440777            -1.019185            -3.624721
| 46>   H                    : -1.700991            -1.589887            -4.669325
| 47> *
| 48>
| 49> #Run DFT-D3 single point of the particle with dimer basis set
| 50> $new_job
| 51> %base "13-43_DFT_B"
| 52> ! wB97X-D3 def2-TZVP TIGHTSCF CHELPG PMODEL
| 53>
| 54> %scf
| 55> MaxIter 1000
| 56> end
| 57>
| 58> * xyz 0 1
| 59>   C                    : 2.238468             -1.442492            -1.376394
| 60>   O                    : 1.121689             -1.733540            -0.514272
| 61>   H                    : 1.431541             -2.499082            -0.058163
| 62>   H                    : 3.190386             -1.760322            -0.835746
| 63>   H                    : 2.025457             -1.974779            -2.354060
| 64>   H                    : 2.293692             -0.377440            -1.575006
| 65>   C                      -0.695942            -1.118168            -4.644641
| 66>   O                      -0.689851            0.124149             -5.212528
| 67>   H                      -0.049258            0.673570             -4.677234
| 68>   H                      -0.102550            -1.842898            -5.168804
| 69>   H                      -0.440777            -1.019185            -3.624721
| 70>   H                      -1.700991            -1.589887            -4.669325
| 71> *
| 72>
| 73>                          ****END OF INPUT****
 Total Charge           Charge          ....    0
 Multiplicity           Mult            ....    1
 Number of Electrons    NEL             ....   36
Dispersion correction           -0.001199683
FINAL SINGLE POINT ENERGY      -231.460780639395
Dispersion correction           -0.000233270
FINAL SINGLE POINT ENERGY      -115.730705255028

CARTESIAN COORDINATES (ANGSTROEM)
---------------------------------
  C      2.238468   -1.442492   -1.376394
  O      1.121689   -1.733540   -0.514272
  H      1.431541   -2.499082   -0.058163
  H      3.190386   -1.760322   -0.835746
  H      2.025457   -1.974779   -2.354060
  H      2.293692   -0.377440   -1.575006
  C     -0.695942   -1.118168   -4.644641
  O     -0.689851    0.124149   -5.212528
  H     -0.049258    0.673570   -4.677234
  H     -0.102550   -1.842898   -5.168804
  H     -0.440777   -1.019185   -3.624721
  H     -1.700991   -1.589887   -4.669325

 Multiplicity           Mult            ....    1
 Number of Electrons    NEL             ....   18
 Basis Dimension        Dim             ....  172

ORBITAL ENERGIES
----------------

  NO   OCC          E(Eh)            E(eV)
   0   2.0000     -19.232883      -523.3534
   1   2.0000     -10.303110      -280.3619
   2   2.0000      -1.146506       -31.1980
   3   2.0000      -0.791774       -21.5453
   4   2.0000      -0.617593       -16.8056
   5   2.0000      -0.553208       -15.0536
   6   2.0000      -0.532436       -14.4883
   7   2.0000      -0.427655       -11.6371
   8   2.0000      -0.369330       -10.0500
   9   0.0000       0.075772         2.0619
  10   0.0000       0.112930         3.0730
  11   0.0000       0.153213         4.1691
  12   0.0000       0.165382         4.5003
  13   0.0000       0.183492         4.9931

MULLIKEN ATOMIC CHARGES
-----------------------
   0 C :    0.000409
   1 O :   -0.000009
   2 H :   -0.000007
   3 H :    0.000001
   4 H :   -0.000956
   5 H :   -0.000085
   6 C :   -0.152865
   7 O :   -0.462515
   8 H :    0.320942
   9 H :    0.093794
  10 H :    0.099231
  11 H :    0.102061
Sum of atomic charges:    0.0000000

LOEWDIN ATOMIC CHARGES
----------------------
   0 C :   -0.001495
   1 O :   -0.000122
   2 H :   -0.000010
   3 H :   -0.000013
   4 H :   -0.001124
   5 H :   -0.000102
   6 C :   -0.424287
   7 O :   -0.057197
   8 H :    0.198799
   9 H :    0.089827
  10 H :    0.089124
  11 H :    0.106600

  Mayer bond orders larger than 0.1
B(  6-C ,  7-O ) :   1.0209 B(  6-C ,  9-H ) :   0.9745 B(  6-C , 10-H ) :   0.9954
B(  6-C , 11-H ) :   0.9749 B(  7-O ,  8-H ) :   0.8929

Dispersion correction           -0.000222022
FINAL SINGLE POINT ENERGY      -115.729004953703

DIPOLE MOMENT
-------------
                                X             Y             Z
Electronic contribution:      0.00193       1.64808      -0.85572
Nuclear contribution   :      0.39042      -1.74956       1.41929
                        -----------------------------------------
Total Dipole Moment    :      0.39235      -0.10148       0.56357
                        -----------------------------------------
Magnitude (a.u.)       :      0.69415
Magnitude (Debye)      :      1.76440

Rotational constants in cm-1:     4.365142     0.881627     0.843496
Rotational constants in MHz : 130863.672544 26430.520499 25287.372563

                             ****ORCA TERMINATED NORMALLY****
TOTAL RUN TIME: 0 days 0 hours 1 minutes 9 seconds 111 msec
