                         Program Version 4.1.2  - RELEASE  -
|  1> #Run DFT-D3 single point of the dimer
|  2> ! wB97X-D3 def2-TZVP TIGHTSCF CHELPG PMODEL PAL8
|  3>
|  4> %base "7-202_DFT_AB"
|  5>
|  6> %scf
|  7> MaxIter 1000
|  8> end
|  9>
| 10> * xyz 0 1
| 11>   C                      -5.694663            5.855385             7.654485
| 12>   O                      -6.732413            4.908999             7.753493
| 13>   H                      -6.902734            4.785585             8.716413
| 14>   H                      -5.860336            6.901046             8.030014
| 15>   H                      -4.748003            5.517548             8.206239
| 16>   H                      -5.409941            5.988484             6.609934
| 17>   C                      -9.181369            2.122025             5.814508
| 18>   O                      -8.904246            2.536516             7.146417
| 19>   H                      -8.288244            3.301824             7.207093
| 20>   H                      -8.213815            2.199684             5.235665
| 21>   H                      -9.506973            1.100846             5.833280
| 22>   H                      -9.931350            2.722090             5.355694
| 23> *
| 24>
| 25> #Run DFT-D3 single point of the molecule with dimer basis set
| 26> $new_job
| 27> %base "7-202_DFT_A"
| 28> ! wB97X-D3 def2-TZVP TIGHTSCF CHELPG PMODEL
| 29>
| 30> %scf
| 31> MaxIter 1000
| 32> end
| 33>
| 34> * xyz 0 1
| 35>   C                      -5.694663            5.855385             7.654485
| 36>   O                      -6.732413            4.908999             7.753493
| 37>   H                      -6.902734            4.785585             8.716413
| 38>   H                      -5.860336            6.901046             8.030014
| 39>   H                      -4.748003            5.517548             8.206239
| 40>   H                      -5.409941            5.988484             6.609934
| 41>   C                    : -9.181369            2.122025             5.814508
| 42>   O                    : -8.904246            2.536516             7.146417
| 43>   H                    : -8.288244            3.301824             7.207093
| 44>   H                    : -8.213815            2.199684             5.235665
| 45>   H                    : -9.506973            1.100846             5.833280
| 46>   H                    : -9.931350            2.722090             5.355694
| 47> *
| 48>
| 49> #Run DFT-D3 single point of the particle with dimer basis set
| 50> $new_job
| 51> %base "7-202_DFT_B"
| 52> ! wB97X-D3 def2-TZVP TIGHTSCF CHELPG PMODEL
| 53>
| 54> %scf
| 55> MaxIter 1000
| 56> end
| 57>
| 58> * xyz 0 1
| 59>   C                    : -5.694663            5.855385             7.654485
| 60>   O                    : -6.732413            4.908999             7.753493
| 61>   H                    : -6.902734            4.785585             8.716413
| 62>   H                    : -5.860336            6.901046             8.030014
| 63>   H                    : -4.748003            5.517548             8.206239
| 64>   H                    : -5.409941            5.988484             6.609934
| 65>   C                      -9.181369            2.122025             5.814508
| 66>   O                      -8.904246            2.536516             7.146417
| 67>   H                      -8.288244            3.301824             7.207093
| 68>   H                      -8.213815            2.199684             5.235665
| 69>   H                      -9.506973            1.100846             5.833280
| 70>   H                      -9.931350            2.722090             5.355694
| 71> *
| 72>
| 73>                          ****END OF INPUT****
 Total Charge           Charge          ....    0
 Multiplicity           Mult            ....    1
 Number of Electrons    NEL             ....   36
Dispersion correction           -0.001240273
FINAL SINGLE POINT ENERGY      -231.472018980756
Dispersion correction           -0.000270187
FINAL SINGLE POINT ENERGY      -115.732991440988

CARTESIAN COORDINATES (ANGSTROEM)
---------------------------------
  C     -5.694663    5.855385    7.654485
  O     -6.732413    4.908999    7.753493
  H     -6.902734    4.785585    8.716413
  H     -5.860336    6.901046    8.030014
  H     -4.748003    5.517548    8.206239
  H     -5.409941    5.988484    6.609934
  C     -9.181369    2.122025    5.814508
  O     -8.904246    2.536516    7.146417
  H     -8.288244    3.301824    7.207093
  H     -8.213815    2.199684    5.235665
  H     -9.506973    1.100846    5.833280
  H     -9.931350    2.722090    5.355694

 Multiplicity           Mult            ....    1
 Number of Electrons    NEL             ....   18
 Basis Dimension        Dim             ....  172

ORBITAL ENERGIES
----------------

  NO   OCC          E(Eh)            E(eV)
   0   2.0000     -19.226234      -523.1724
   1   2.0000     -10.312013      -280.6041
   2   2.0000      -1.123602       -30.5748
   3   2.0000      -0.796244       -21.6669
   4   2.0000      -0.603388       -16.4190
   5   2.0000      -0.543027       -14.7765
   6   2.0000      -0.531402       -14.4602
   7   2.0000      -0.422791       -11.5047
   8   2.0000      -0.371096       -10.0980
   9   0.0000       0.072358         1.9690
  10   0.0000       0.119354         3.2478
  11   0.0000       0.147831         4.0227
  12   0.0000       0.178718         4.8632
  13   0.0000       0.197135         5.3643

MULLIKEN ATOMIC CHARGES
-----------------------
   0 C :   -0.000242
   1 O :    0.000014
   2 H :   -0.000188
   3 H :    0.000007
   4 H :    0.000014
   5 H :   -0.000001
   6 C :   -0.148263
   7 O :   -0.492343
   8 H :    0.314183
   9 H :    0.098401
  10 H :    0.122552
  11 H :    0.105867
Sum of atomic charges:   -0.0000000

LOEWDIN ATOMIC CHARGES
----------------------
   0 C :   -0.000510
   1 O :   -0.007780
   2 H :   -0.001263
   3 H :   -0.000012
   4 H :   -0.000012
   5 H :   -0.000020
   6 C :   -0.370250
   7 O :   -0.097885
   8 H :    0.182781
   9 H :    0.103502
  10 H :    0.103525
  11 H :    0.087923

  Mayer bond orders larger than 0.1
B(  6-C ,  7-O ) :   0.9882 B(  6-C ,  9-H ) :   0.9867 B(  6-C , 10-H ) :   0.9718
B(  6-C , 11-H ) :   0.9721 B(  7-O ,  8-H ) :   0.8988

Dispersion correction           -0.000247364
FINAL SINGLE POINT ENERGY      -115.733271798395

DIPOLE MOMENT
-------------
                                X             Y             Z
Electronic contribution:      0.14594       0.39643       1.66669
Nuclear contribution   :      0.12629      -0.08808      -2.17953
                        -----------------------------------------
Total Dipole Moment    :      0.27223       0.30835      -0.51284
                        -----------------------------------------
Magnitude (a.u.)       :      0.65742
Magnitude (Debye)      :      1.67102

Rotational constants in cm-1:     4.289858     0.822976     0.792936
Rotational constants in MHz : 128606.696242 24672.184807 23771.618518

                             ****ORCA TERMINATED NORMALLY****
TOTAL RUN TIME: 0 days 0 hours 0 minutes 59 seconds 705 msec
