                         Program Version 4.1.2  - RELEASE  -
|  1> #Run DFT-D3 single point of the dimer
|  2> ! wB97X-D3 def2-TZVP TIGHTSCF CHELPG PMODEL PAL8
|  3>
|  4> %base "11-183_DFT_AB"
|  5>
|  6> %scf
|  7> MaxIter 1000
|  8> end
|  9>
| 10> * xyz 0 1
| 11>   C                      5.547524             -7.144413            -1.480023
| 12>   O                      6.884929             -6.590262            -1.372487
| 13>   H                      7.005034             -6.172990            -2.186891
| 14>   H                      4.817243             -6.345806            -1.306037
| 15>   H                      5.434728             -7.623133            -2.470622
| 16>   H                      5.419992             -7.895576            -0.685752
| 17>   C                      9.367639             -8.678602            0.619427
| 18>   O                      8.593254             -9.207392            -0.476758
| 19>   H                      7.982472             -8.500838            -0.750835
| 20>   H                      9.941304             -9.446459            1.203495
| 21>   H                      10.109017            -7.974802            0.249839
| 22>   H                      8.692363             -8.251948            1.436759
| 23> *
| 24>
| 25> #Run DFT-D3 single point of the molecule with dimer basis set
| 26> $new_job
| 27> %base "11-183_DFT_A"
| 28> ! wB97X-D3 def2-TZVP TIGHTSCF CHELPG PMODEL
| 29>
| 30> %scf
| 31> MaxIter 1000
| 32> end
| 33>
| 34> * xyz 0 1
| 35>   C                      5.547524             -7.144413            -1.480023
| 36>   O                      6.884929             -6.590262            -1.372487
| 37>   H                      7.005034             -6.172990            -2.186891
| 38>   H                      4.817243             -6.345806            -1.306037
| 39>   H                      5.434728             -7.623133            -2.470622
| 40>   H                      5.419992             -7.895576            -0.685752
| 41>   C                    : 9.367639             -8.678602            0.619427
| 42>   O                    : 8.593254             -9.207392            -0.476758
| 43>   H                    : 7.982472             -8.500838            -0.750835
| 44>   H                    : 9.941304             -9.446459            1.203495
| 45>   H                    : 10.109017            -7.974802            0.249839
| 46>   H                    : 8.692363             -8.251948            1.436759
| 47> *
| 48>
| 49> #Run DFT-D3 single point of the particle with dimer basis set
| 50> $new_job
| 51> %base "11-183_DFT_B"
| 52> ! wB97X-D3 def2-TZVP TIGHTSCF CHELPG PMODEL
| 53>
| 54> %scf
| 55> MaxIter 1000
| 56> end
| 57>
| 58> * xyz 0 1
| 59>   C                    : 5.547524             -7.144413            -1.480023
| 60>   O                    : 6.884929             -6.590262            -1.372487
| 61>   H                    : 7.005034             -6.172990            -2.186891
| 62>   H                    : 4.817243             -6.345806            -1.306037
| 63>   H                    : 5.434728             -7.623133            -2.470622
| 64>   H                    : 5.419992             -7.895576            -0.685752
| 65>   C                      9.367639             -8.678602            0.619427
| 66>   O                      8.593254             -9.207392            -0.476758
| 67>   H                      7.982472             -8.500838            -0.750835
| 68>   H                      9.941304             -9.446459            1.203495
| 69>   H                      10.109017            -7.974802            0.249839
| 70>   H                      8.692363             -8.251948            1.436759
| 71> *
| 72>
| 73>                          ****END OF INPUT****
 Total Charge           Charge          ....    0
 Multiplicity           Mult            ....    1
 Number of Electrons    NEL             ....   36
Dispersion correction           -0.001671264
FINAL SINGLE POINT ENERGY      -231.473000702757
Dispersion correction           -0.000231814
FINAL SINGLE POINT ENERGY      -115.734220990247

CARTESIAN COORDINATES (ANGSTROEM)
---------------------------------
  C      5.547524   -7.144413   -1.480023
  O      6.884929   -6.590262   -1.372487
  H      7.005034   -6.172990   -2.186891
  H      4.817243   -6.345806   -1.306037
  H      5.434728   -7.623133   -2.470622
  H      5.419992   -7.895576   -0.685752
  C      9.367639   -8.678602    0.619427
  O      8.593254   -9.207392   -0.476758
  H      7.982472   -8.500838   -0.750835
  H      9.941304   -9.446459    1.203495
  H     10.109017   -7.974802    0.249839
  H      8.692363   -8.251948    1.436759

 Multiplicity           Mult            ....    1
 Number of Electrons    NEL             ....   18
 Basis Dimension        Dim             ....  172

ORBITAL ENERGIES
----------------

  NO   OCC          E(Eh)            E(eV)
   0   2.0000     -19.233771      -523.3775
   1   2.0000     -10.323484      -280.9163
   2   2.0000      -1.126903       -30.6646
   3   2.0000      -0.790945       -21.5227
   4   2.0000      -0.599148       -16.3037
   5   2.0000      -0.544778       -14.8242
   6   2.0000      -0.521664       -14.1952
   7   2.0000      -0.426700       -11.6111
   8   2.0000      -0.377431       -10.2704
   9   0.0000       0.069378         1.8879
  10   0.0000       0.130515         3.5515
  11   0.0000       0.150356         4.0914
  12   0.0000       0.158444         4.3115
  13   0.0000       0.188957         5.1418

MULLIKEN ATOMIC CHARGES
-----------------------
   0 C :   -0.000001
   1 O :   -0.001000
   2 H :   -0.000273
   3 H :   -0.000021
   4 H :   -0.000033
   5 H :   -0.002550
   6 C :   -0.182362
   7 O :   -0.472118
   8 H :    0.315735
   9 H :    0.120785
  10 H :    0.115687
  11 H :    0.106151
Sum of atomic charges:    0.0000000

LOEWDIN ATOMIC CHARGES
----------------------
   0 C :   -0.004307
   1 O :   -0.007287
   2 H :   -0.000612
   3 H :   -0.000057
   4 H :   -0.000117
   5 H :   -0.001575
   6 C :   -0.379994
   7 O :   -0.097961
   8 H :    0.179412
   9 H :    0.112765
  10 H :    0.094712
  11 H :    0.105021

  Mayer bond orders larger than 0.1
B(  6-C ,  7-O ) :   0.9895 B(  6-C ,  9-H ) :   0.9704 B(  6-C , 10-H ) :   0.9742
B(  6-C , 11-H ) :   0.9747 B(  7-O ,  8-H ) :   0.9052

Dispersion correction           -0.000266596
FINAL SINGLE POINT ENERGY      -115.731684850368

DIPOLE MOMENT
-------------
                                X             Y             Z
Electronic contribution:     -0.88477      -0.79257      -1.48434
Nuclear contribution   :      0.83432       1.42983       1.76848
                        -----------------------------------------
Total Dipole Moment    :     -0.05045       0.63726       0.28414
                        -----------------------------------------
Magnitude (a.u.)       :      0.69956
Magnitude (Debye)      :      1.77813

Rotational constants in cm-1:     4.189456     0.790150     0.771276
Rotational constants in MHz : 125596.741171 23688.090642 23122.261175

                             ****ORCA TERMINATED NORMALLY****
TOTAL RUN TIME: 0 days 0 hours 1 minutes 13 seconds 536 msec
