                         Program Version 4.1.2  - RELEASE  -
|  1> #Run DFT-D3 single point of the dimer
|  2> ! wB97X-D3 def2-TZVP TIGHTSCF CHELPG PMODEL PAL8
|  3>
|  4> %base "22-41_DFT_AB"
|  5>
|  6> %scf
|  7> MaxIter 1000
|  8> end
|  9>
| 10> * xyz 0 1
| 11>   C                      3.346385             5.166609             -0.324777
| 12>   O                      4.605433             4.856927             -0.851271
| 13>   H                      4.735588             5.658297             -1.389277
| 14>   H                      2.939554             4.225934             -0.016089
| 15>   H                      3.411675             5.727115             0.579502
| 16>   H                      2.613158             5.716876             -1.000328
| 17>   C                      1.095944             8.166273             0.776603
| 18>   O                      0.517582             8.047650             -0.461068
| 19>   H                      0.706959             8.852177             -0.975110
| 20>   H                      0.550971             9.003790             1.328476
| 21>   H                      1.245504             7.247085             1.380575
| 22>   H                      2.087410             8.582038             0.714807
| 23> *
| 24>
| 25> #Run DFT-D3 single point of the molecule with dimer basis set
| 26> $new_job
| 27> %base "22-41_DFT_A"
| 28> ! wB97X-D3 def2-TZVP TIGHTSCF CHELPG PMODEL
| 29>
| 30> %scf
| 31> MaxIter 1000
| 32> end
| 33>
| 34> * xyz 0 1
| 35>   C                      3.346385             5.166609             -0.324777
| 36>   O                      4.605433             4.856927             -0.851271
| 37>   H                      4.735588             5.658297             -1.389277
| 38>   H                      2.939554             4.225934             -0.016089
| 39>   H                      3.411675             5.727115             0.579502
| 40>   H                      2.613158             5.716876             -1.000328
| 41>   C                    : 1.095944             8.166273             0.776603
| 42>   O                    : 0.517582             8.047650             -0.461068
| 43>   H                    : 0.706959             8.852177             -0.975110
| 44>   H                    : 0.550971             9.003790             1.328476
| 45>   H                    : 1.245504             7.247085             1.380575
| 46>   H                    : 2.087410             8.582038             0.714807
| 47> *
| 48>
| 49> #Run DFT-D3 single point of the particle with dimer basis set
| 50> $new_job
| 51> %base "22-41_DFT_B"
| 52> ! wB97X-D3 def2-TZVP TIGHTSCF CHELPG PMODEL
| 53>
| 54> %scf
| 55> MaxIter 1000
| 56> end
| 57>
| 58> * xyz 0 1
| 59>   C                    : 3.346385             5.166609             -0.324777
| 60>   O                    : 4.605433             4.856927             -0.851271
| 61>   H                    : 4.735588             5.658297             -1.389277
| 62>   H                    : 2.939554             4.225934             -0.016089
| 63>   H                    : 3.411675             5.727115             0.579502
| 64>   H                    : 2.613158             5.716876             -1.000328
| 65>   C                      1.095944             8.166273             0.776603
| 66>   O                      0.517582             8.047650             -0.461068
| 67>   H                      0.706959             8.852177             -0.975110
| 68>   H                      0.550971             9.003790             1.328476
| 69>   H                      1.245504             7.247085             1.380575
| 70>   H                      2.087410             8.582038             0.714807
| 71> *
| 72>
| 73>                          ****END OF INPUT****
 Total Charge           Charge          ....    0
 Multiplicity           Mult            ....    1
 Number of Electrons    NEL             ....   36
Dispersion correction           -0.001564623
FINAL SINGLE POINT ENERGY      -231.458508348335
Dispersion correction           -0.000224358
FINAL SINGLE POINT ENERGY      -115.729302836347

CARTESIAN COORDINATES (ANGSTROEM)
---------------------------------
  C      3.346385    5.166609   -0.324777
  O      4.605433    4.856927   -0.851271
  H      4.735588    5.658297   -1.389277
  H      2.939554    4.225934   -0.016089
  H      3.411675    5.727115    0.579502
  H      2.613158    5.716876   -1.000328
  C      1.095944    8.166273    0.776603
  O      0.517582    8.047650   -0.461068
  H      0.706959    8.852177   -0.975110
  H      0.550971    9.003790    1.328476
  H      1.245504    7.247085    1.380575
  H      2.087410    8.582038    0.714807

 Multiplicity           Mult            ....    1
 Number of Electrons    NEL             ....   18
 Basis Dimension        Dim             ....  172

ORBITAL ENERGIES
----------------

  NO   OCC          E(Eh)            E(eV)
   0   2.0000     -19.232226      -523.3355
   1   2.0000     -10.314791      -280.6797
   2   2.0000      -1.148738       -31.2588
   3   2.0000      -0.790621       -21.5139
   4   2.0000      -0.621947       -16.9240
   5   2.0000      -0.547087       -14.8870
   6   2.0000      -0.528127       -14.3711
   7   2.0000      -0.429481       -11.6868
   8   2.0000      -0.365444        -9.9442
   9   0.0000       0.087557         2.3825
  10   0.0000       0.116542         3.1713
  11   0.0000       0.149687         4.0732
  12   0.0000       0.171448         4.6653
  13   0.0000       0.195977         5.3328

MULLIKEN ATOMIC CHARGES
-----------------------
   0 C :    0.002983
   1 O :   -0.000015
   2 H :   -0.000041
   3 H :   -0.000117
   4 H :   -0.002662
   5 H :   -0.003799
   6 C :   -0.174581
   7 O :   -0.468843
   8 H :    0.322961
   9 H :    0.093936
  10 H :    0.127874
  11 H :    0.102304
Sum of atomic charges:    0.0000000

LOEWDIN ATOMIC CHARGES
----------------------
   0 C :   -0.001923
   1 O :   -0.000013
   2 H :   -0.000006
   3 H :   -0.000029
   4 H :   -0.001635
   5 H :   -0.002888
   6 C :   -0.429605
   7 O :   -0.051360
   8 H :    0.184366
   9 H :    0.100885
  10 H :    0.113296
  11 H :    0.088912

  Mayer bond orders larger than 0.1
B(  6-C ,  7-O ) :   0.9871 B(  6-C ,  9-H ) :   0.9787 B(  6-C , 10-H ) :   0.9672
B(  6-C , 11-H ) :   0.9821 B(  7-O ,  8-H ) :   0.8891

Dispersion correction           -0.000223215
FINAL SINGLE POINT ENERGY      -115.727687138791

DIPOLE MOMENT
-------------
                                X             Y             Z
Electronic contribution:     -0.87252      -0.50262      -1.65940
Nuclear contribution   :      1.24916       1.05744       1.77090
                        -----------------------------------------
Total Dipole Moment    :      0.37664       0.55482       0.11150
                        -----------------------------------------
Magnitude (a.u.)       :      0.67979
Magnitude (Debye)      :      1.72789

Rotational constants in cm-1:     4.282473     0.866295     0.827653
Rotational constants in MHz : 128385.302173 25970.884971 24812.398838

                             ****ORCA TERMINATED NORMALLY****
TOTAL RUN TIME: 0 days 0 hours 0 minutes 59 seconds 556 msec
