                         Program Version 4.1.2  - RELEASE  -
|  1> #Run DFT-D3 single point of the dimer
|  2> ! wB97X-D3 def2-TZVP TIGHTSCF CHELPG PMODEL PAL8
|  3>
|  4> %base "15-31_DFT_AB"
|  5>
|  6> %scf
|  7> MaxIter 1000
|  8> end
|  9>
| 10> * xyz 0 1
| 11>   C                      4.420336             -3.631376            1.742753
| 12>   O                      3.162538             -4.207617            1.389367
| 13>   H                      2.908502             -4.657569            2.203867
| 14>   H                      4.810058             -2.966194            0.971924
| 15>   H                      4.419981             -3.156620            2.638260
| 16>   H                      5.257324             -4.385752            1.882703
| 17>   C                      4.782454             -7.749446            2.341077
| 18>   O                      4.729057             -7.195487            3.633504
| 19>   H                      5.558203             -7.561001            3.976243
| 20>   H                      4.043059             -7.129505            1.759039
| 21>   H                      5.773346             -7.555535            1.845416
| 22>   H                      4.616473             -8.806187            2.357449
| 23> *
| 24>
| 25> #Run DFT-D3 single point of the molecule with dimer basis set
| 26> $new_job
| 27> %base "15-31_DFT_A"
| 28> ! wB97X-D3 def2-TZVP TIGHTSCF CHELPG PMODEL
| 29>
| 30> %scf
| 31> MaxIter 1000
| 32> end
| 33>
| 34> * xyz 0 1
| 35>   C                      4.420336             -3.631376            1.742753
| 36>   O                      3.162538             -4.207617            1.389367
| 37>   H                      2.908502             -4.657569            2.203867
| 38>   H                      4.810058             -2.966194            0.971924
| 39>   H                      4.419981             -3.156620            2.638260
| 40>   H                      5.257324             -4.385752            1.882703
| 41>   C                    : 4.782454             -7.749446            2.341077
| 42>   O                    : 4.729057             -7.195487            3.633504
| 43>   H                    : 5.558203             -7.561001            3.976243
| 44>   H                    : 4.043059             -7.129505            1.759039
| 45>   H                    : 5.773346             -7.555535            1.845416
| 46>   H                    : 4.616473             -8.806187            2.357449
| 47> *
| 48>
| 49> #Run DFT-D3 single point of the particle with dimer basis set
| 50> $new_job
| 51> %base "15-31_DFT_B"
| 52> ! wB97X-D3 def2-TZVP TIGHTSCF CHELPG PMODEL
| 53>
| 54> %scf
| 55> MaxIter 1000
| 56> end
| 57>
| 58> * xyz 0 1
| 59>   C                    : 4.420336             -3.631376            1.742753
| 60>   O                    : 3.162538             -4.207617            1.389367
| 61>   H                    : 2.908502             -4.657569            2.203867
| 62>   H                    : 4.810058             -2.966194            0.971924
| 63>   H                    : 4.419981             -3.156620            2.638260
| 64>   H                    : 5.257324             -4.385752            1.882703
| 65>   C                      4.782454             -7.749446            2.341077
| 66>   O                      4.729057             -7.195487            3.633504
| 67>   H                      5.558203             -7.561001            3.976243
| 68>   H                      4.043059             -7.129505            1.759039
| 69>   H                      5.773346             -7.555535            1.845416
| 70>   H                      4.616473             -8.806187            2.357449
| 71> *
| 72>
| 73>                          ****END OF INPUT****
 Total Charge           Charge          ....    0
 Multiplicity           Mult            ....    1
 Number of Electrons    NEL             ....   36
Dispersion correction           -0.001729218
FINAL SINGLE POINT ENERGY      -231.462418971430
Dispersion correction           -0.000239924
FINAL SINGLE POINT ENERGY      -115.728733240515

CARTESIAN COORDINATES (ANGSTROEM)
---------------------------------
  C      4.420336   -3.631376    1.742753
  O      3.162538   -4.207617    1.389367
  H      2.908502   -4.657569    2.203867
  H      4.810058   -2.966194    0.971924
  H      4.419981   -3.156620    2.638260
  H      5.257324   -4.385752    1.882703
  C      4.782454   -7.749446    2.341077
  O      4.729057   -7.195487    3.633504
  H      5.558203   -7.561001    3.976243
  H      4.043059   -7.129505    1.759039
  H      5.773346   -7.555535    1.845416
  H      4.616473   -8.806187    2.357449

 Multiplicity           Mult            ....    1
 Number of Electrons    NEL             ....   18
 Basis Dimension        Dim             ....  172

ORBITAL ENERGIES
----------------

  NO   OCC          E(Eh)            E(eV)
   0   2.0000     -19.233215      -523.3624
   1   2.0000     -10.316688      -280.7313
   2   2.0000      -1.144437       -31.1417
   3   2.0000      -0.785820       -21.3833
   4   2.0000      -0.613271       -16.6880
   5   2.0000      -0.550525       -14.9806
   6   2.0000      -0.515136       -14.0176
   7   2.0000      -0.440187       -11.9781
   8   2.0000      -0.375413       -10.2155
   9   0.0000       0.089107         2.4247
  10   0.0000       0.120016         3.2658
  11   0.0000       0.157401         4.2831
  12   0.0000       0.163213         4.4413
  13   0.0000       0.198515         5.4019

MULLIKEN ATOMIC CHARGES
-----------------------
   0 C :   -0.000010
   1 O :    0.000000
   2 H :   -0.000225
   3 H :   -0.000009
   4 H :   -0.000112
   5 H :   -0.000806
   6 C :   -0.185954
   7 O :   -0.458707
   8 H :    0.312294
   9 H :    0.116959
  10 H :    0.102011
  11 H :    0.114560
Sum of atomic charges:   -0.0000000

LOEWDIN ATOMIC CHARGES
----------------------
   0 C :   -0.001872
   1 O :   -0.000626
   2 H :   -0.001024
   3 H :   -0.000014
   4 H :   -0.000081
   5 H :   -0.001213
   6 C :   -0.403303
   7 O :   -0.074309
   8 H :    0.178086
   9 H :    0.116541
  10 H :    0.098777
  11 H :    0.089038

  Mayer bond orders larger than 0.1
B(  6-C ,  7-O ) :   0.9892 B(  6-C ,  9-H ) :   0.9777 B(  6-C , 10-H ) :   0.9796
B(  6-C , 11-H ) :   0.9690 B(  7-O ,  8-H ) :   0.9043

Dispersion correction           -0.000209024
FINAL SINGLE POINT ENERGY      -115.730430018537

DIPOLE MOMENT
-------------
                                X             Y             Z
Electronic contribution:     -0.27733       0.65187       1.67654
Nuclear contribution   :      0.80560      -1.07852      -1.94180
                        -----------------------------------------
Total Dipole Moment    :      0.52827      -0.42665      -0.26525
                        -----------------------------------------
Magnitude (a.u.)       :      0.72901
Magnitude (Debye)      :      1.85300

Rotational constants in cm-1:     4.040541     0.857108     0.819615
Rotational constants in MHz : 121132.365214 25695.437007 24571.435180

                             ****ORCA TERMINATED NORMALLY****
TOTAL RUN TIME: 0 days 0 hours 1 minutes 3 seconds 309 msec
