                         Program Version 4.1.2  - RELEASE  -
|  1> #Run DFT-D3 single point of the dimer
|  2> ! wB97X-D3 def2-TZVP TIGHTSCF CHELPG PMODEL PAL8
|  3>
|  4> %base "22-166_DFT_AB"
|  5>
|  6> %scf
|  7> MaxIter 1000
|  8> end
|  9>
| 10> * xyz 0 1
| 11>   C                      -3.031453            -8.230321            9.453541
| 12>   O                      -2.800068            -6.911817            8.896784
| 13>   H                      -2.274891            -6.502026            9.650505
| 14>   H                      -3.671579            -8.226209            10.428590
| 15>   H                      -3.573674            -8.815508            8.708564
| 16>   H                      -2.044238            -8.683523            9.744940
| 17>   C                      -4.521975            -6.233287            5.954755
| 18>   O                      -4.879138            -6.814400            7.255290
| 19>   H                      -4.346958            -6.453633            7.886201
| 20>   H                      -3.499010            -6.592115            5.620698
| 21>   H                      -5.202318            -6.713222            5.198677
| 22>   H                      -4.591454            -5.146394            5.966266
| 23> *
| 24>
| 25> #Run DFT-D3 single point of the molecule with dimer basis set
| 26> $new_job
| 27> %base "22-166_DFT_A"
| 28> ! wB97X-D3 def2-TZVP TIGHTSCF CHELPG PMODEL
| 29>
| 30> %scf
| 31> MaxIter 1000
| 32> end
| 33>
| 34> * xyz 0 1
| 35>   C                      -3.031453            -8.230321            9.453541
| 36>   O                      -2.800068            -6.911817            8.896784
| 37>   H                      -2.274891            -6.502026            9.650505
| 38>   H                      -3.671579            -8.226209            10.428590
| 39>   H                      -3.573674            -8.815508            8.708564
| 40>   H                      -2.044238            -8.683523            9.744940
| 41>   C                    : -4.521975            -6.233287            5.954755
| 42>   O                    : -4.879138            -6.814400            7.255290
| 43>   H                    : -4.346958            -6.453633            7.886201
| 44>   H                    : -3.499010            -6.592115            5.620698
| 45>   H                    : -5.202318            -6.713222            5.198677
| 46>   H                    : -4.591454            -5.146394            5.966266
| 47> *
| 48>
| 49> #Run DFT-D3 single point of the particle with dimer basis set
| 50> $new_job
| 51> %base "22-166_DFT_B"
| 52> ! wB97X-D3 def2-TZVP TIGHTSCF CHELPG PMODEL
| 53>
| 54> %scf
| 55> MaxIter 1000
| 56> end
| 57>
| 58> * xyz 0 1
| 59>   C                    : -3.031453            -8.230321            9.453541
| 60>   O                    : -2.800068            -6.911817            8.896784
| 61>   H                    : -2.274891            -6.502026            9.650505
| 62>   H                    : -3.671579            -8.226209            10.428590
| 63>   H                    : -3.573674            -8.815508            8.708564
| 64>   H                    : -2.044238            -8.683523            9.744940
| 65>   C                      -4.521975            -6.233287            5.954755
| 66>   O                      -4.879138            -6.814400            7.255290
| 67>   H                      -4.346958            -6.453633            7.886201
| 68>   H                      -3.499010            -6.592115            5.620698
| 69>   H                      -5.202318            -6.713222            5.198677
| 70>   H                      -4.591454            -5.146394            5.966266
| 71> *
| 72>
| 73>                          ****END OF INPUT****
 Total Charge           Charge          ....    0
 Multiplicity           Mult            ....    1
 Number of Electrons    NEL             ....   36
Dispersion correction           -0.001875676
FINAL SINGLE POINT ENERGY      -231.464963987170
Dispersion correction           -0.000251639
FINAL SINGLE POINT ENERGY      -115.729419629169

CARTESIAN COORDINATES (ANGSTROEM)
---------------------------------
  C     -3.031453   -8.230321    9.453541
  O     -2.800068   -6.911817    8.896784
  H     -2.274891   -6.502026    9.650505
  H     -3.671579   -8.226209   10.428590
  H     -3.573674   -8.815508    8.708564
  H     -2.044238   -8.683523    9.744940
  C     -4.521975   -6.233287    5.954755
  O     -4.879138   -6.814400    7.255290
  H     -4.346958   -6.453633    7.886201
  H     -3.499010   -6.592115    5.620698
  H     -5.202318   -6.713222    5.198677
  H     -4.591454   -5.146394    5.966266

 Multiplicity           Mult            ....    1
 Number of Electrons    NEL             ....   18
 Basis Dimension        Dim             ....  172

ORBITAL ENERGIES
----------------

  NO   OCC          E(Eh)            E(eV)
   0   2.0000     -19.225886      -523.1629
   1   2.0000     -10.327003      -281.0120
   2   2.0000      -1.134207       -30.8634
   3   2.0000      -0.798459       -21.7272
   4   2.0000      -0.606785       -16.5115
   5   2.0000      -0.542354       -14.7582
   6   2.0000      -0.515108       -14.0168
   7   2.0000      -0.437762       -11.9121
   8   2.0000      -0.378973       -10.3124
   9   0.0000       0.080488         2.1902
  10   0.0000       0.132025         3.5926
  11   0.0000       0.154579         4.2063
  12   0.0000       0.170355         4.6356
  13   0.0000       0.186692         5.0801

MULLIKEN ATOMIC CHARGES
-----------------------
   0 C :   -0.002883
   1 O :   -0.007766
   2 H :   -0.000404
   3 H :   -0.000014
   4 H :   -0.006206
   5 H :   -0.000102
   6 C :   -0.177688
   7 O :   -0.452880
   8 H :    0.298710
   9 H :    0.104674
  10 H :    0.126073
  11 H :    0.118485
Sum of atomic charges:    0.0000000

LOEWDIN ATOMIC CHARGES
----------------------
   0 C :   -0.011549
   1 O :   -0.024570
   2 H :   -0.000958
   3 H :   -0.000198
   4 H :   -0.006003
   5 H :   -0.000135
   6 C :   -0.347157
   7 O :   -0.056143
   8 H :    0.129985
   9 H :    0.103374
  10 H :    0.117299
  11 H :    0.096053

  Mayer bond orders larger than 0.1
B(  6-C ,  7-O ) :   0.9950 B(  6-C ,  9-H ) :   0.9696 B(  6-C , 10-H ) :   0.9748
B(  6-C , 11-H ) :   0.9710 B(  7-O ,  8-H ) :   0.9181

Dispersion correction           -0.000268103
FINAL SINGLE POINT ENERGY      -115.730080340057

DIPOLE MOMENT
-------------
                                X             Y             Z
Electronic contribution:     -0.55736      -0.62538       1.55991
Nuclear contribution   :      1.03394       1.10735      -1.72826
                        -----------------------------------------
Total Dipole Moment    :      0.47658       0.48196      -0.16835
                        -----------------------------------------
Magnitude (a.u.)       :      0.69839
Magnitude (Debye)      :      1.77518

Rotational constants in cm-1:     4.206113     0.780564     0.758469
Rotational constants in MHz : 126096.098754 23400.709380 22738.315585

                             ****ORCA TERMINATED NORMALLY****
TOTAL RUN TIME: 0 days 0 hours 1 minutes 8 seconds 813 msec
