                         Program Version 4.1.2  - RELEASE  -
|  1> #Run DFT-D3 single point of the dimer
|  2> ! wB97X-D3 def2-TZVP TIGHTSCF CHELPG PMODEL PAL8
|  3>
|  4> %base "18-138_DFT_AB"
|  5>
|  6> %scf
|  7> MaxIter 1000
|  8> end
|  9>
| 10> * xyz 0 1
| 11>   C                      -9.153282            -8.477792            6.924629
| 12>   O                      -7.769319            -8.220859            7.312762
| 13>   H                      -7.444320            -7.572881            6.635456
| 14>   H                      -9.273223            -9.351089            6.351012
| 15>   H                      -9.805501            -8.522427            7.775496
| 16>   H                      -9.528106            -7.587786            6.403392
| 17>   C                      -9.629236            -6.875782            2.977081
| 18>   O                      -9.486358            -6.018210            4.080432
| 19>   H                      -8.576836            -6.037125            4.467025
| 20>   H                      -8.769483            -6.838347            2.277197
| 21>   H                      -9.773832            -7.924350            3.349965
| 22>   H                      -10.459922           -6.602737            2.346828
| 23> *
| 24>
| 25> #Run DFT-D3 single point of the molecule with dimer basis set
| 26> $new_job
| 27> %base "18-138_DFT_A"
| 28> ! wB97X-D3 def2-TZVP TIGHTSCF CHELPG PMODEL
| 29>
| 30> %scf
| 31> MaxIter 1000
| 32> end
| 33>
| 34> * xyz 0 1
| 35>   C                      -9.153282            -8.477792            6.924629
| 36>   O                      -7.769319            -8.220859            7.312762
| 37>   H                      -7.444320            -7.572881            6.635456
| 38>   H                      -9.273223            -9.351089            6.351012
| 39>   H                      -9.805501            -8.522427            7.775496
| 40>   H                      -9.528106            -7.587786            6.403392
| 41>   C                    : -9.629236            -6.875782            2.977081
| 42>   O                    : -9.486358            -6.018210            4.080432
| 43>   H                    : -8.576836            -6.037125            4.467025
| 44>   H                    : -8.769483            -6.838347            2.277197
| 45>   H                    : -9.773832            -7.924350            3.349965
| 46>   H                    : -10.459922           -6.602737            2.346828
| 47> *
| 48>
| 49> #Run DFT-D3 single point of the particle with dimer basis set
| 50> $new_job
| 51> %base "18-138_DFT_B"
| 52> ! wB97X-D3 def2-TZVP TIGHTSCF CHELPG PMODEL
| 53>
| 54> %scf
| 55> MaxIter 1000
| 56> end
| 57>
| 58> * xyz 0 1
| 59>   C                    : -9.153282            -8.477792            6.924629
| 60>   O                    : -7.769319            -8.220859            7.312762
| 61>   H                    : -7.444320            -7.572881            6.635456
| 62>   H                    : -9.273223            -9.351089            6.351012
| 63>   H                    : -9.805501            -8.522427            7.775496
| 64>   H                    : -9.528106            -7.587786            6.403392
| 65>   C                      -9.629236            -6.875782            2.977081
| 66>   O                      -9.486358            -6.018210            4.080432
| 67>   H                      -8.576836            -6.037125            4.467025
| 68>   H                      -8.769483            -6.838347            2.277197
| 69>   H                      -9.773832            -7.924350            3.349965
| 70>   H                      -10.459922           -6.602737            2.346828
| 71> *
| 72>
| 73>                          ****END OF INPUT****
 Total Charge           Charge          ....    0
 Multiplicity           Mult            ....    1
 Number of Electrons    NEL             ....   36
Dispersion correction           -0.001734747
FINAL SINGLE POINT ENERGY      -231.465002613372
Dispersion correction           -0.000249975
FINAL SINGLE POINT ENERGY      -115.730496726069

CARTESIAN COORDINATES (ANGSTROEM)
---------------------------------
  C     -9.153282   -8.477792    6.924629
  O     -7.769319   -8.220859    7.312762
  H     -7.444320   -7.572881    6.635456
  H     -9.273223   -9.351089    6.351012
  H     -9.805501   -8.522427    7.775496
  H     -9.528106   -7.587786    6.403392
  C     -9.629236   -6.875782    2.977081
  O     -9.486358   -6.018210    4.080432
  H     -8.576836   -6.037125    4.467025
  H     -8.769483   -6.838347    2.277197
  H     -9.773832   -7.924350    3.349965
  H    -10.459922   -6.602737    2.346828

 Multiplicity           Mult            ....    1
 Number of Electrons    NEL             ....   18
 Basis Dimension        Dim             ....  172

ORBITAL ENERGIES
----------------

  NO   OCC          E(Eh)            E(eV)
   0   2.0000     -19.232258      -523.3363
   1   2.0000     -10.315722      -280.7051
   2   2.0000      -1.131505       -30.7898
   3   2.0000      -0.793829       -21.6012
   4   2.0000      -0.608759       -16.5652
   5   2.0000      -0.543748       -14.7961
   6   2.0000      -0.527906       -14.3651
   7   2.0000      -0.424332       -11.5467
   8   2.0000      -0.372283       -10.1303
   9   0.0000       0.080201         2.1824
  10   0.0000       0.127949         3.4817
  11   0.0000       0.144556         3.9336
  12   0.0000       0.173981         4.7343
  13   0.0000       0.186688         5.0801

MULLIKEN ATOMIC CHARGES
-----------------------
   0 C :    0.003152
   1 O :    0.000416
   2 H :   -0.001297
   3 H :   -0.000199
   4 H :   -0.000518
   5 H :   -0.011816
   6 C :   -0.161283
   7 O :   -0.479223
   8 H :    0.324424
   9 H :    0.101635
  10 H :    0.100879
  11 H :    0.123828
Sum of atomic charges:    0.0000000

LOEWDIN ATOMIC CHARGES
----------------------
   0 C :   -0.002816
   1 O :   -0.000056
   2 H :   -0.001144
   3 H :   -0.000215
   4 H :   -0.000031
   5 H :   -0.007600
   6 C :   -0.396536
   7 O :   -0.078433
   8 H :    0.186462
   9 H :    0.096646
  10 H :    0.099607
  11 H :    0.104117

  Mayer bond orders larger than 0.1
B(  6-C ,  7-O ) :   1.0002 B(  6-C ,  9-H ) :   0.9782 B(  6-C , 10-H ) :   0.9766
B(  6-C , 11-H ) :   0.9709 B(  7-O ,  8-H ) :   0.8870

Dispersion correction           -0.000258086
FINAL SINGLE POINT ENERGY      -115.734096777466

DIPOLE MOMENT
-------------
                                X             Y             Z
Electronic contribution:      0.02053       1.19839       1.39785
Nuclear contribution   :      0.50125      -1.51812      -1.62264
                        -----------------------------------------
Total Dipole Moment    :      0.52178      -0.31972      -0.22479
                        -----------------------------------------
Magnitude (a.u.)       :      0.65193
Magnitude (Debye)      :      1.65707

Rotational constants in cm-1:     4.284373     0.823106     0.803318
Rotational constants in MHz : 128442.283328 24676.096621 24082.860986

                             ****ORCA TERMINATED NORMALLY****
TOTAL RUN TIME: 0 days 0 hours 0 minutes 57 seconds 378 msec
