                         Program Version 4.1.2  - RELEASE  -
|  1> #Run DFT-D3 single point of the dimer
|  2> ! wB97X-D3 def2-TZVP TIGHTSCF CHELPG PMODEL PAL8
|  3>
|  4> %base "16-39_DFT_AB"
|  5>
|  6> %scf
|  7> MaxIter 1000
|  8> end
|  9>
| 10> * xyz 0 1
| 11>   C                      -9.607152            5.117939             10.317156
| 12>   O                      -9.368994            5.737735             9.035976
| 13>   H                      -8.398916            5.941708             9.107230
| 14>   H                      -9.158430            4.141483             10.316364
| 15>   H                      -9.168728            5.705296             11.156317
| 16>   H                      -10.756930           5.109507             10.406257
| 17>   C                      -4.622937            6.512677             6.094771
| 18>   O                      -5.730739            5.646685             5.979663
| 19>   H                      -5.703783            5.372196             5.033767
| 20>   H                      -4.238808            6.649470             7.055892
| 21>   H                      -3.794243            6.162017             5.517498
| 22>   H                      -4.796104            7.446366             5.644331
| 23> *
| 24>
| 25> #Run DFT-D3 single point of the molecule with dimer basis set
| 26> $new_job
| 27> %base "16-39_DFT_A"
| 28> ! wB97X-D3 def2-TZVP TIGHTSCF CHELPG PMODEL
| 29>
| 30> %scf
| 31> MaxIter 1000
| 32> end
| 33>
| 34> * xyz 0 1
| 35>   C                      -9.607152            5.117939             10.317156
| 36>   O                      -9.368994            5.737735             9.035976
| 37>   H                      -8.398916            5.941708             9.107230
| 38>   H                      -9.158430            4.141483             10.316364
| 39>   H                      -9.168728            5.705296             11.156317
| 40>   H                      -10.756930           5.109507             10.406257
| 41>   C                    : -4.622937            6.512677             6.094771
| 42>   O                    : -5.730739            5.646685             5.979663
| 43>   H                    : -5.703783            5.372196             5.033767
| 44>   H                    : -4.238808            6.649470             7.055892
| 45>   H                    : -3.794243            6.162017             5.517498
| 46>   H                    : -4.796104            7.446366             5.644331
| 47> *
| 48>
| 49> #Run DFT-D3 single point of the particle with dimer basis set
| 50> $new_job
| 51> %base "16-39_DFT_B"
| 52> ! wB97X-D3 def2-TZVP TIGHTSCF CHELPG PMODEL
| 53>
| 54> %scf
| 55> MaxIter 1000
| 56> end
| 57>
| 58> * xyz 0 1
| 59>   C                    : -9.607152            5.117939             10.317156
| 60>   O                    : -9.368994            5.737735             9.035976
| 61>   H                    : -8.398916            5.941708             9.107230
| 62>   H                    : -9.158430            4.141483             10.316364
| 63>   H                    : -9.168728            5.705296             11.156317
| 64>   H                    : -10.756930           5.109507             10.406257
| 65>   C                      -4.622937            6.512677             6.094771
| 66>   O                      -5.730739            5.646685             5.979663
| 67>   H                      -5.703783            5.372196             5.033767
| 68>   H                      -4.238808            6.649470             7.055892
| 69>   H                      -3.794243            6.162017             5.517498
| 70>   H                      -4.796104            7.446366             5.644331
| 71> *
| 72>
| 73>                          ****END OF INPUT****
 Total Charge           Charge          ....    0
 Multiplicity           Mult            ....    1
 Number of Electrons    NEL             ....   36
Dispersion correction           -0.000600194
FINAL SINGLE POINT ENERGY      -231.459420243351
Dispersion correction           -0.000229781
FINAL SINGLE POINT ENERGY      -115.730408125378

CARTESIAN COORDINATES (ANGSTROEM)
---------------------------------
  C     -9.607152    5.117939   10.317156
  O     -9.368994    5.737735    9.035976
  H     -8.398916    5.941708    9.107230
  H     -9.158430    4.141483   10.316364
  H     -9.168728    5.705296   11.156317
  H    -10.756930    5.109507   10.406257
  C     -4.622937    6.512677    6.094771
  O     -5.730739    5.646685    5.979663
  H     -5.703783    5.372196    5.033767
  H     -4.238808    6.649470    7.055892
  H     -3.794243    6.162017    5.517498
  H     -4.796104    7.446366    5.644331

 Multiplicity           Mult            ....    1
 Number of Electrons    NEL             ....   18
 Basis Dimension        Dim             ....  172

ORBITAL ENERGIES
----------------

  NO   OCC          E(Eh)            E(eV)
   0   2.0000     -19.233819      -523.3788
   1   2.0000     -10.299359      -280.2598
   2   2.0000      -1.135362       -30.8948
   3   2.0000      -0.803335       -21.8598
   4   2.0000      -0.612752       -16.6738
   5   2.0000      -0.545377       -14.8405
   6   2.0000      -0.531257       -14.4562
   7   2.0000      -0.440640       -11.9904
   8   2.0000      -0.372384       -10.1331
   9   0.0000       0.094254         2.5648
  10   0.0000       0.110711         3.0126
  11   0.0000       0.156389         4.2556
  12   0.0000       0.175092         4.7645
  13   0.0000       0.200303         5.4505

MULLIKEN ATOMIC CHARGES
-----------------------
   0 C :    0.000091
   1 O :    0.000037
   2 H :   -0.000719
   3 H :   -0.000015
   4 H :   -0.000003
   5 H :    0.000001
   6 C :   -0.169837
   7 O :   -0.467983
   8 H :    0.317806
   9 H :    0.120592
  10 H :    0.098944
  11 H :    0.101087
Sum of atomic charges:   -0.0000000

LOEWDIN ATOMIC CHARGES
----------------------
   0 C :   -0.000004
   1 O :   -0.000019
   2 H :   -0.000325
   3 H :   -0.000001
   4 H :   -0.000000
   5 H :   -0.000000
   6 C :   -0.382352
   7 O :   -0.083077
   8 H :    0.189182
   9 H :    0.096830
  10 H :    0.092612
  11 H :    0.087154

  Mayer bond orders larger than 0.1
B(  6-C ,  7-O ) :   1.0023 B(  6-C ,  9-H ) :   0.9747 B(  6-C , 10-H ) :   0.9880
B(  6-C , 11-H ) :   0.9774 B(  7-O ,  8-H ) :   0.8972

Dispersion correction           -0.000216317
FINAL SINGLE POINT ENERGY      -115.728550089356

DIPOLE MOMENT
-------------
                                X             Y             Z
Electronic contribution:     -1.55414      -1.10047       0.16225
Nuclear contribution   :      2.03381       1.27147      -0.70941
                        -----------------------------------------
Total Dipole Moment    :      0.47967       0.17100      -0.54716
                        -----------------------------------------
Magnitude (a.u.)       :      0.74747
Magnitude (Debye)      :      1.89991

Rotational constants in cm-1:     4.573952     0.841337     0.804160
Rotational constants in MHz : 137123.627498 25222.660368 24108.114534

                             ****ORCA TERMINATED NORMALLY****
TOTAL RUN TIME: 0 days 0 hours 1 minutes 0 seconds 897 msec
