                         Program Version 4.1.2  - RELEASE  -
|  1> #Run DFT-D3 single point of the dimer
|  2> ! wB97X-D3 def2-TZVP TIGHTSCF CHELPG PMODEL PAL8
|  3>
|  4> %base "19-31_DFT_AB"
|  5>
|  6> %scf
|  7> MaxIter 1000
|  8> end
|  9>
| 10> * xyz 0 1
| 11>   C                      -9.778594            2.584819             -7.098236
| 12>   O                      -10.503116           3.623638             -6.480022
| 13>   H                      -10.501269           4.334988             -7.158476
| 14>   H                      -9.911806            2.435577             -8.131833
| 15>   H                      -8.678102            2.671316             -7.052734
| 16>   H                      -9.924804            1.624095             -6.681747
| 17>   C                      -5.962067            2.058000             -6.727734
| 18>   O                      -6.074522            0.724130             -7.258330
| 19>   H                      -6.830663            0.692795             -7.852670
| 20>   H                      -5.898301            2.758126             -7.603611
| 21>   H                      -6.811730            2.365219             -6.074757
| 22>   H                      -4.984122            2.110984             -6.236321
| 23> *
| 24>
| 25> #Run DFT-D3 single point of the molecule with dimer basis set
| 26> $new_job
| 27> %base "19-31_DFT_A"
| 28> ! wB97X-D3 def2-TZVP TIGHTSCF CHELPG PMODEL
| 29>
| 30> %scf
| 31> MaxIter 1000
| 32> end
| 33>
| 34> * xyz 0 1
| 35>   C                      -9.778594            2.584819             -7.098236
| 36>   O                      -10.503116           3.623638             -6.480022
| 37>   H                      -10.501269           4.334988             -7.158476
| 38>   H                      -9.911806            2.435577             -8.131833
| 39>   H                      -8.678102            2.671316             -7.052734
| 40>   H                      -9.924804            1.624095             -6.681747
| 41>   C                    : -5.962067            2.058000             -6.727734
| 42>   O                    : -6.074522            0.724130             -7.258330
| 43>   H                    : -6.830663            0.692795             -7.852670
| 44>   H                    : -5.898301            2.758126             -7.603611
| 45>   H                    : -6.811730            2.365219             -6.074757
| 46>   H                    : -4.984122            2.110984             -6.236321
| 47> *
| 48>
| 49> #Run DFT-D3 single point of the particle with dimer basis set
| 50> $new_job
| 51> %base "19-31_DFT_B"
| 52> ! wB97X-D3 def2-TZVP TIGHTSCF CHELPG PMODEL
| 53>
| 54> %scf
| 55> MaxIter 1000
| 56> end
| 57>
| 58> * xyz 0 1
| 59>   C                    : -9.778594            2.584819             -7.098236
| 60>   O                    : -10.503116           3.623638             -6.480022
| 61>   H                    : -10.501269           4.334988             -7.158476
| 62>   H                    : -9.911806            2.435577             -8.131833
| 63>   H                    : -8.678102            2.671316             -7.052734
| 64>   H                    : -9.924804            1.624095             -6.681747
| 65>   C                      -5.962067            2.058000             -6.727734
| 66>   O                      -6.074522            0.724130             -7.258330
| 67>   H                      -6.830663            0.692795             -7.852670
| 68>   H                      -5.898301            2.758126             -7.603611
| 69>   H                      -6.811730            2.365219             -6.074757
| 70>   H                      -4.984122            2.110984             -6.236321
| 71> *
| 72>
| 73>                          ****END OF INPUT****
 Total Charge           Charge          ....    0
 Multiplicity           Mult            ....    1
 Number of Electrons    NEL             ....   36
Dispersion correction           -0.001694960
FINAL SINGLE POINT ENERGY      -231.463486091788
Dispersion correction           -0.000251189
FINAL SINGLE POINT ENERGY      -115.728537465035

CARTESIAN COORDINATES (ANGSTROEM)
---------------------------------
  C     -9.778594    2.584819   -7.098236
  O    -10.503116    3.623638   -6.480022
  H    -10.501269    4.334988   -7.158476
  H     -9.911806    2.435577   -8.131833
  H     -8.678102    2.671316   -7.052734
  H     -9.924804    1.624095   -6.681747
  C     -5.962067    2.058000   -6.727734
  O     -6.074522    0.724130   -7.258330
  H     -6.830663    0.692795   -7.852670
  H     -5.898301    2.758126   -7.603611
  H     -6.811730    2.365219   -6.074757
  H     -4.984122    2.110984   -6.236321

 Multiplicity           Mult            ....    1
 Number of Electrons    NEL             ....   18
 Basis Dimension        Dim             ....  172

ORBITAL ENERGIES
----------------

  NO   OCC          E(Eh)            E(eV)
   0   2.0000     -19.228935      -523.2459
   1   2.0000     -10.320959      -280.8476
   2   2.0000      -1.127238       -30.6737
   3   2.0000      -0.791734       -21.5442
   4   2.0000      -0.603871       -16.4322
   5   2.0000      -0.538301       -14.6479
   6   2.0000      -0.521602       -14.1935
   7   2.0000      -0.433752       -11.8030
   8   2.0000      -0.373344       -10.1592
   9   0.0000       0.074581         2.0294
  10   0.0000       0.122809         3.3418
  11   0.0000       0.150338         4.0909
  12   0.0000       0.169556         4.6138
  13   0.0000       0.185711         5.0535

MULLIKEN ATOMIC CHARGES
-----------------------
   0 C :   -0.000590
   1 O :    0.000149
   2 H :    0.000039
   3 H :   -0.000061
   4 H :    0.000362
   5 H :   -0.000192
   6 C :   -0.179650
   7 O :   -0.478422
   8 H :    0.312425
   9 H :    0.101747
  10 H :    0.110165
  11 H :    0.134025
Sum of atomic charges:   -0.0000000

LOEWDIN ATOMIC CHARGES
----------------------
   0 C :   -0.003695
   1 O :   -0.000018
   2 H :   -0.000003
   3 H :   -0.000062
   4 H :   -0.007873
   5 H :   -0.000187
   6 C :   -0.368071
   7 O :   -0.098675
   8 H :    0.164947
   9 H :    0.101162
  10 H :    0.101957
  11 H :    0.110518

  Mayer bond orders larger than 0.1
B(  6-C ,  7-O ) :   0.9944 B(  6-C ,  9-H ) :   0.9814 B(  6-C , 10-H ) :   0.9631
B(  6-C , 11-H ) :   0.9721 B(  7-O ,  8-H ) :   0.9017

Dispersion correction           -0.000253034
FINAL SINGLE POINT ENERGY      -115.734971630230

DIPOLE MOMENT
-------------
                                X             Y             Z
Electronic contribution:     -0.06801      -1.71634      -0.45613
Nuclear contribution   :     -0.34465       2.23960       0.28832
                        -----------------------------------------
Total Dipole Moment    :     -0.41267       0.52326      -0.16781
                        -----------------------------------------
Magnitude (a.u.)       :      0.68721
Magnitude (Debye)      :      1.74675

Rotational constants in cm-1:     4.126737     0.807446     0.780982
Rotational constants in MHz : 123716.471501 24206.627476 23413.247604

                             ****ORCA TERMINATED NORMALLY****
TOTAL RUN TIME: 0 days 0 hours 0 minutes 53 seconds 514 msec
