                         Program Version 4.1.2  - RELEASE  -
|  1> #Run DFT-D3 single point of the dimer
|  2> ! wB97X-D3 def2-TZVP TIGHTSCF CHELPG PMODEL PAL8
|  3>
|  4> %base "16-91_DFT_AB"
|  5>
|  6> %scf
|  7> MaxIter 1000
|  8> end
|  9>
| 10> * xyz 0 1
| 11>   C                      7.892758             10.821007            -2.226867
| 12>   O                      8.272880             9.742820             -1.404930
| 13>   H                      8.541633             10.062633            -0.501364
| 14>   H                      7.192416             10.442952            -2.924750
| 15>   H                      7.429778             11.576646            -1.600123
| 16>   H                      8.748379             11.363983            -2.592521
| 17>   C                      4.184219             10.013231            -5.709976
| 18>   O                      5.393323             10.361793            -6.452198
| 19>   H                      5.418056             9.764200             -7.163521
| 20>   H                      4.182232             10.412448            -4.723368
| 21>   H                      3.264418             10.268188            -6.217298
| 22>   H                      4.131771             8.969842             -5.465421
| 23> *
| 24>
| 25> #Run DFT-D3 single point of the molecule with dimer basis set
| 26> $new_job
| 27> %base "16-91_DFT_A"
| 28> ! wB97X-D3 def2-TZVP TIGHTSCF CHELPG PMODEL
| 29>
| 30> %scf
| 31> MaxIter 1000
| 32> end
| 33>
| 34> * xyz 0 1
| 35>   C                      7.892758             10.821007            -2.226867
| 36>   O                      8.272880             9.742820             -1.404930
| 37>   H                      8.541633             10.062633            -0.501364
| 38>   H                      7.192416             10.442952            -2.924750
| 39>   H                      7.429778             11.576646            -1.600123
| 40>   H                      8.748379             11.363983            -2.592521
| 41>   C                    : 4.184219             10.013231            -5.709976
| 42>   O                    : 5.393323             10.361793            -6.452198
| 43>   H                    : 5.418056             9.764200             -7.163521
| 44>   H                    : 4.182232             10.412448            -4.723368
| 45>   H                    : 3.264418             10.268188            -6.217298
| 46>   H                    : 4.131771             8.969842             -5.465421
| 47> *
| 48>
| 49> #Run DFT-D3 single point of the particle with dimer basis set
| 50> $new_job
| 51> %base "16-91_DFT_B"
| 52> ! wB97X-D3 def2-TZVP TIGHTSCF CHELPG PMODEL
| 53>
| 54> %scf
| 55> MaxIter 1000
| 56> end
| 57>
| 58> * xyz 0 1
| 59>   C                    : 7.892758             10.821007            -2.226867
| 60>   O                    : 8.272880             9.742820             -1.404930
| 61>   H                    : 8.541633             10.062633            -0.501364
| 62>   H                    : 7.192416             10.442952            -2.924750
| 63>   H                    : 7.429778             11.576646            -1.600123
| 64>   H                    : 8.748379             11.363983            -2.592521
| 65>   C                      4.184219             10.013231            -5.709976
| 66>   O                      5.393323             10.361793            -6.452198
| 67>   H                      5.418056             9.764200             -7.163521
| 68>   H                      4.182232             10.412448            -4.723368
| 69>   H                      3.264418             10.268188            -6.217298
| 70>   H                      4.131771             8.969842             -5.465421
| 71> *
| 72>
| 73>                          ****END OF INPUT****
 Total Charge           Charge          ....    0
 Multiplicity           Mult            ....    1
 Number of Electrons    NEL             ....   36
Dispersion correction           -0.000798984
FINAL SINGLE POINT ENERGY      -231.461918058493
Dispersion correction           -0.000224679
FINAL SINGLE POINT ENERGY      -115.730388627028

CARTESIAN COORDINATES (ANGSTROEM)
---------------------------------
  C      7.892758   10.821007   -2.226867
  O      8.272880    9.742820   -1.404930
  H      8.541633   10.062633   -0.501364
  H      7.192416   10.442952   -2.924750
  H      7.429778   11.576646   -1.600123
  H      8.748379   11.363983   -2.592521
  C      4.184219   10.013231   -5.709976
  O      5.393323   10.361793   -6.452198
  H      5.418056    9.764200   -7.163521
  H      4.182232   10.412448   -4.723368
  H      3.264418   10.268188   -6.217298
  H      4.131771    8.969842   -5.465421

 Multiplicity           Mult            ....    1
 Number of Electrons    NEL             ....   18
 Basis Dimension        Dim             ....  172

ORBITAL ENERGIES
----------------

  NO   OCC          E(Eh)            E(eV)
   0   2.0000     -19.230315      -523.2835
   1   2.0000     -10.310499      -280.5629
   2   2.0000      -1.131341       -30.7853
   3   2.0000      -0.806864       -21.9559
   4   2.0000      -0.606907       -16.5148
   5   2.0000      -0.544884       -14.8270
   6   2.0000      -0.520964       -14.1762
   7   2.0000      -0.440289       -11.9809
   8   2.0000      -0.380106       -10.3432
   9   0.0000       0.091329         2.4852
  10   0.0000       0.118928         3.2362
  11   0.0000       0.149233         4.0608
  12   0.0000       0.170175         4.6307
  13   0.0000       0.193146         5.2558

MULLIKEN ATOMIC CHARGES
-----------------------
   0 C :    0.000191
   1 O :    0.000000
   2 H :    0.000000
   3 H :   -0.000787
   4 H :   -0.000008
   5 H :    0.000005
   6 C :   -0.184706
   7 O :   -0.471299
   8 H :    0.307862
   9 H :    0.125716
  10 H :    0.112631
  11 H :    0.110396
Sum of atomic charges:    0.0000000

LOEWDIN ATOMIC CHARGES
----------------------
   0 C :   -0.000131
   1 O :   -0.000005
   2 H :   -0.000000
   3 H :   -0.000350
   4 H :   -0.000003
   5 H :   -0.000002
   6 C :   -0.349650
   7 O :   -0.089493
   8 H :    0.146243
   9 H :    0.103924
  10 H :    0.095053
  11 H :    0.094413

  Mayer bond orders larger than 0.1
B(  6-C ,  7-O ) :   0.9963 B(  6-C ,  9-H ) :   0.9748 B(  6-C , 10-H ) :   0.9738
B(  6-C , 11-H ) :   0.9771 B(  7-O ,  8-H ) :   0.9099

Dispersion correction           -0.000256184
FINAL SINGLE POINT ENERGY      -115.730889666651

DIPOLE MOMENT
-------------
                                X             Y             Z
Electronic contribution:      1.55099       0.62579      -0.90103
Nuclear contribution   :     -2.04385      -1.17369       0.78716
                        -----------------------------------------
Total Dipole Moment    :     -0.49287      -0.54790      -0.11388
                        -----------------------------------------
Magnitude (a.u.)       :      0.74571
Magnitude (Debye)      :      1.89544

Rotational constants in cm-1:     4.574741     0.784058     0.763352
Rotational constants in MHz : 137147.280052 23505.479266 22884.728642

                             ****ORCA TERMINATED NORMALLY****
TOTAL RUN TIME: 0 days 0 hours 0 minutes 48 seconds 39 msec
