                         Program Version 4.1.2  - RELEASE  -
|  1> #Run DFT-D3 single point of the dimer
|  2> ! wB97X-D3 def2-TZVP TIGHTSCF CHELPG PMODEL PAL8
|  3>
|  4> %base "12-46_DFT_AB"
|  5>
|  6> %scf
|  7> MaxIter 1000
|  8> end
|  9>
| 10> * xyz 0 1
| 11>   C                      -2.565252            4.718114             -0.085181
| 12>   O                      -2.001019            4.805665             -1.430314
| 13>   H                      -1.240345            5.338943             -1.221299
| 14>   H                      -1.779562            4.387065             0.613376
| 15>   H                      -2.893558            5.626545             0.347260
| 16>   H                      -3.394099            4.098800             0.009473
| 17>   C                      -3.084867            2.515254             3.133100
| 18>   O                      -3.232284            3.661662             3.928242
| 19>   H                      -3.629435            3.402159             4.772507
| 20>   H                      -4.054995            2.124697             2.781676
| 21>   H                      -2.341373            2.640359             2.336730
| 22>   H                      -2.766456            1.629814             3.716883
| 23> *
| 24>
| 25> #Run DFT-D3 single point of the molecule with dimer basis set
| 26> $new_job
| 27> %base "12-46_DFT_A"
| 28> ! wB97X-D3 def2-TZVP TIGHTSCF CHELPG PMODEL
| 29>
| 30> %scf
| 31> MaxIter 1000
| 32> end
| 33>
| 34> * xyz 0 1
| 35>   C                      -2.565252            4.718114             -0.085181
| 36>   O                      -2.001019            4.805665             -1.430314
| 37>   H                      -1.240345            5.338943             -1.221299
| 38>   H                      -1.779562            4.387065             0.613376
| 39>   H                      -2.893558            5.626545             0.347260
| 40>   H                      -3.394099            4.098800             0.009473
| 41>   C                    : -3.084867            2.515254             3.133100
| 42>   O                    : -3.232284            3.661662             3.928242
| 43>   H                    : -3.629435            3.402159             4.772507
| 44>   H                    : -4.054995            2.124697             2.781676
| 45>   H                    : -2.341373            2.640359             2.336730
| 46>   H                    : -2.766456            1.629814             3.716883
| 47> *
| 48>
| 49> #Run DFT-D3 single point of the particle with dimer basis set
| 50> $new_job
| 51> %base "12-46_DFT_B"
| 52> ! wB97X-D3 def2-TZVP TIGHTSCF CHELPG PMODEL
| 53>
| 54> %scf
| 55> MaxIter 1000
| 56> end
| 57>
| 58> * xyz 0 1
| 59>   C                    : -2.565252            4.718114             -0.085181
| 60>   O                    : -2.001019            4.805665             -1.430314
| 61>   H                    : -1.240345            5.338943             -1.221299
| 62>   H                    : -1.779562            4.387065             0.613376
| 63>   H                    : -2.893558            5.626545             0.347260
| 64>   H                    : -3.394099            4.098800             0.009473
| 65>   C                      -3.084867            2.515254             3.133100
| 66>   O                      -3.232284            3.661662             3.928242
| 67>   H                      -3.629435            3.402159             4.772507
| 68>   H                      -4.054995            2.124697             2.781676
| 69>   H                      -2.341373            2.640359             2.336730
| 70>   H                      -2.766456            1.629814             3.716883
| 71> *
| 72>
| 73>                          ****END OF INPUT****
 Total Charge           Charge          ....    0
 Multiplicity           Mult            ....    1
 Number of Electrons    NEL             ....   36
Dispersion correction           -0.001426578
FINAL SINGLE POINT ENERGY      -231.461277195306
Dispersion correction           -0.000233859
FINAL SINGLE POINT ENERGY      -115.727032675996

CARTESIAN COORDINATES (ANGSTROEM)
---------------------------------
  C     -2.565252    4.718114   -0.085181
  O     -2.001019    4.805665   -1.430314
  H     -1.240345    5.338943   -1.221299
  H     -1.779562    4.387065    0.613376
  H     -2.893558    5.626545    0.347260
  H     -3.394099    4.098800    0.009473
  C     -3.084867    2.515254    3.133100
  O     -3.232284    3.661662    3.928242
  H     -3.629435    3.402159    4.772507
  H     -4.054995    2.124697    2.781676
  H     -2.341373    2.640359    2.336730
  H     -2.766456    1.629814    3.716883

 Multiplicity           Mult            ....    1
 Number of Electrons    NEL             ....   18
 Basis Dimension        Dim             ....  172

ORBITAL ENERGIES
----------------

  NO   OCC          E(Eh)            E(eV)
   0   2.0000     -19.232596      -523.3455
   1   2.0000     -10.315610      -280.7020
   2   2.0000      -1.138746       -30.9869
   3   2.0000      -0.793955       -21.6046
   4   2.0000      -0.617823       -16.8118
   5   2.0000      -0.540325       -14.7030
   6   2.0000      -0.523140       -14.2354
   7   2.0000      -0.436275       -11.8716
   8   2.0000      -0.369511       -10.0549
   9   0.0000       0.090886         2.4731
  10   0.0000       0.115435         3.1411
  11   0.0000       0.151564         4.1243
  12   0.0000       0.176475         4.8021
  13   0.0000       0.187795         5.1102

MULLIKEN ATOMIC CHARGES
-----------------------
   0 C :    0.001000
   1 O :    0.000065
   2 H :    0.000016
   3 H :    0.000610
   4 H :   -0.000397
   5 H :   -0.000640
   6 C :   -0.169135
   7 O :   -0.472110
   8 H :    0.318403
   9 H :    0.094372
  10 H :    0.125580
  11 H :    0.102236
Sum of atomic charges:   -0.0000000

LOEWDIN ATOMIC CHARGES
----------------------
   0 C :   -0.002812
   1 O :   -0.000012
   2 H :   -0.000001
   3 H :   -0.002159
   4 H :   -0.000105
   5 H :   -0.000773
   6 C :   -0.399984
   7 O :   -0.071520
   8 H :    0.176594
   9 H :    0.094488
  10 H :    0.110467
  11 H :    0.095818

  Mayer bond orders larger than 0.1
B(  6-C ,  7-O ) :   1.0018 B(  6-C ,  9-H ) :   0.9755 B(  6-C , 10-H ) :   0.9704
B(  6-C , 11-H ) :   0.9797 B(  7-O ,  8-H ) :   0.8947

Dispersion correction           -0.000241977
FINAL SINGLE POINT ENERGY      -115.732879701036

DIPOLE MOMENT
-------------
                                X             Y             Z
Electronic contribution:     -0.08617       1.73242       0.85003
Nuclear contribution   :     -0.09600      -2.35600      -0.60258
                        -----------------------------------------
Total Dipole Moment    :     -0.18216      -0.62358       0.24745
                        -----------------------------------------
Magnitude (a.u.)       :      0.69517
Magnitude (Debye)      :      1.76699

Rotational constants in cm-1:     4.308215     0.838136     0.798116
Rotational constants in MHz : 129157.040758 25126.683907 23926.915817

                             ****ORCA TERMINATED NORMALLY****
TOTAL RUN TIME: 0 days 0 hours 1 minutes 14 seconds 271 msec
