                         Program Version 4.1.2  - RELEASE  -
|  1> #Run DFT-D3 single point of the dimer
|  2> ! wB97X-D3 def2-TZVP TIGHTSCF CHELPG PMODEL PAL8
|  3>
|  4> %base "19-213_DFT_AB"
|  5>
|  6> %scf
|  7> MaxIter 1000
|  8> end
|  9>
| 10> * xyz 0 1
| 11>   C                      1.550472             2.691775             3.242156
| 12>   O                      0.851878             2.735374             1.989813
| 13>   H                      -0.067199            2.404889             2.121764
| 14>   H                      0.871757             2.590793             4.113144
| 15>   H                      2.285522             1.838047             3.182843
| 16>   H                      2.106612             3.612805             3.357390
| 17>   C                      -2.210150            4.309729             2.179350
| 18>   O                      -2.099163            3.474252             3.360581
| 19>   H                      -2.770289            2.741984             3.380769
| 20>   H                      -1.626261            3.910436             1.350685
| 21>   H                      -3.312350            4.480102             1.869655
| 22>   H                      -1.674488            5.251024             2.293240
| 23> *
| 24>
| 25> #Run DFT-D3 single point of the molecule with dimer basis set
| 26> $new_job
| 27> %base "19-213_DFT_A"
| 28> ! wB97X-D3 def2-TZVP TIGHTSCF CHELPG PMODEL
| 29>
| 30> %scf
| 31> MaxIter 1000
| 32> end
| 33>
| 34> * xyz 0 1
| 35>   C                      1.550472             2.691775             3.242156
| 36>   O                      0.851878             2.735374             1.989813
| 37>   H                      -0.067199            2.404889             2.121764
| 38>   H                      0.871757             2.590793             4.113144
| 39>   H                      2.285522             1.838047             3.182843
| 40>   H                      2.106612             3.612805             3.357390
| 41>   C                    : -2.210150            4.309729             2.179350
| 42>   O                    : -2.099163            3.474252             3.360581
| 43>   H                    : -2.770289            2.741984             3.380769
| 44>   H                    : -1.626261            3.910436             1.350685
| 45>   H                    : -3.312350            4.480102             1.869655
| 46>   H                    : -1.674488            5.251024             2.293240
| 47> *
| 48>
| 49> #Run DFT-D3 single point of the particle with dimer basis set
| 50> $new_job
| 51> %base "19-213_DFT_B"
| 52> ! wB97X-D3 def2-TZVP TIGHTSCF CHELPG PMODEL
| 53>
| 54> %scf
| 55> MaxIter 1000
| 56> end
| 57>
| 58> * xyz 0 1
| 59>   C                    : 1.550472             2.691775             3.242156
| 60>   O                    : 0.851878             2.735374             1.989813
| 61>   H                    : -0.067199            2.404889             2.121764
| 62>   H                    : 0.871757             2.590793             4.113144
| 63>   H                    : 2.285522             1.838047             3.182843
| 64>   H                    : 2.106612             3.612805             3.357390
| 65>   C                      -2.210150            4.309729             2.179350
| 66>   O                      -2.099163            3.474252             3.360581
| 67>   H                      -2.770289            2.741984             3.380769
| 68>   H                      -1.626261            3.910436             1.350685
| 69>   H                      -3.312350            4.480102             1.869655
| 70>   H                      -1.674488            5.251024             2.293240
| 71> *
| 72>
| 73>                          ****END OF INPUT****
 Total Charge           Charge          ....    0
 Multiplicity           Mult            ....    1
 Number of Electrons    NEL             ....   36
Dispersion correction           -0.002049124
FINAL SINGLE POINT ENERGY      -231.467388170500
Dispersion correction           -0.000260684
FINAL SINGLE POINT ENERGY      -115.734506518849

CARTESIAN COORDINATES (ANGSTROEM)
---------------------------------
  C      1.550472    2.691775    3.242156
  O      0.851878    2.735374    1.989813
  H     -0.067199    2.404889    2.121764
  H      0.871757    2.590793    4.113144
  H      2.285522    1.838047    3.182843
  H      2.106612    3.612805    3.357390
  C     -2.210150    4.309729    2.179350
  O     -2.099163    3.474252    3.360581
  H     -2.770289    2.741984    3.380769
  H     -1.626261    3.910436    1.350685
  H     -3.312350    4.480102    1.869655
  H     -1.674488    5.251024    2.293240

 Multiplicity           Mult            ....    1
 Number of Electrons    NEL             ....   18
 Basis Dimension        Dim             ....  172

ORBITAL ENERGIES
----------------

  NO   OCC          E(Eh)            E(eV)
   0   2.0000     -19.233384      -523.3670
   1   2.0000     -10.322724      -280.8956
   2   2.0000      -1.116680       -30.3864
   3   2.0000      -0.794967       -21.6321
   4   2.0000      -0.597675       -16.2636
   5   2.0000      -0.538836       -14.6625
   6   2.0000      -0.520489       -14.1632
   7   2.0000      -0.427658       -11.6372
   8   2.0000      -0.372154       -10.1268
   9   0.0000       0.094125         2.5613
  10   0.0000       0.121475         3.3055
  11   0.0000       0.143188         3.8964
  12   0.0000       0.176460         4.8017
  13   0.0000       0.193819         5.2741

MULLIKEN ATOMIC CHARGES
-----------------------
   0 C :    0.004045
   1 O :    0.000869
   2 H :   -0.005363
   3 H :   -0.004349
   4 H :   -0.000168
   5 H :   -0.000374
   6 C :   -0.170702
   7 O :   -0.488423
   8 H :    0.321299
   9 H :    0.109133
  10 H :    0.110346
  11 H :    0.123687
Sum of atomic charges:   -0.0000000

LOEWDIN ATOMIC CHARGES
----------------------
   0 C :   -0.002917
   1 O :   -0.002140
   2 H :   -0.009900
   3 H :   -0.002646
   4 H :   -0.000022
   5 H :   -0.000041
   6 C :   -0.368516
   7 O :   -0.111227
   8 H :    0.185218
   9 H :    0.095623
  10 H :    0.109103
  11 H :    0.107464

  Mayer bond orders larger than 0.1
B(  6-C ,  7-O ) :   0.9975 B(  6-C ,  9-H ) :   0.9751 B(  6-C , 10-H ) :   0.9733
B(  6-C , 11-H ) :   0.9742 B(  7-O ,  8-H ) :   0.8887

Dispersion correction           -0.000290635
FINAL SINGLE POINT ENERGY      -115.728246515867

DIPOLE MOMENT
-------------
                                X             Y             Z
Electronic contribution:      0.19903      -0.95786       1.57451
Nuclear contribution   :     -0.65204       0.85820      -2.05958
                        -----------------------------------------
Total Dipole Moment    :     -0.45301      -0.09966      -0.48507
                        -----------------------------------------
Magnitude (a.u.)       :      0.67115
Magnitude (Debye)      :      1.70593

Rotational constants in cm-1:     4.238192     0.785574     0.750063
Rotational constants in MHz : 127057.789511 23550.920674 22486.332797

                             ****ORCA TERMINATED NORMALLY****
TOTAL RUN TIME: 0 days 0 hours 0 minutes 49 seconds 947 msec
