                         Program Version 4.1.2  - RELEASE  -
|  1> #Run DFT-D3 single point of the dimer
|  2> ! wB97X-D3 def2-TZVP TIGHTSCF CHELPG PMODEL PAL8
|  3>
|  4> %base "3-27_DFT_AB"
|  5>
|  6> %scf
|  7> MaxIter 1000
|  8> end
|  9>
| 10> * xyz 0 1
| 11>   C                      -1.479890            -2.782146            -10.347695
| 12>   O                      -2.119262            -3.328411            -11.446586
| 13>   H                      -1.445049            -3.506653            -12.123038
| 14>   H                      -2.045989            -2.790401            -9.457301
| 15>   H                      -0.487859            -3.274771            -10.077993
| 16>   H                      -1.208709            -1.733125            -10.415487
| 17>   C                      -0.791894            0.153209             -7.293953
| 18>   O                      -0.429146            0.665434             -6.098540
| 19>   H                      -0.963668            0.273240             -5.400980
| 20>   H                      -1.837251            0.451589             -7.599444
| 21>   H                      -0.115426            0.306201             -8.126156
| 22>   H                      -0.855482            -0.922665            -7.269317
| 23> *
| 24>
| 25> #Run DFT-D3 single point of the molecule with dimer basis set
| 26> $new_job
| 27> %base "3-27_DFT_A"
| 28> ! wB97X-D3 def2-TZVP TIGHTSCF CHELPG PMODEL
| 29>
| 30> %scf
| 31> MaxIter 1000
| 32> end
| 33>
| 34> * xyz 0 1
| 35>   C                      -1.479890            -2.782146            -10.347695
| 36>   O                      -2.119262            -3.328411            -11.446586
| 37>   H                      -1.445049            -3.506653            -12.123038
| 38>   H                      -2.045989            -2.790401            -9.457301
| 39>   H                      -0.487859            -3.274771            -10.077993
| 40>   H                      -1.208709            -1.733125            -10.415487
| 41>   C                    : -0.791894            0.153209             -7.293953
| 42>   O                    : -0.429146            0.665434             -6.098540
| 43>   H                    : -0.963668            0.273240             -5.400980
| 44>   H                    : -1.837251            0.451589             -7.599444
| 45>   H                    : -0.115426            0.306201             -8.126156
| 46>   H                    : -0.855482            -0.922665            -7.269317
| 47> *
| 48>
| 49> #Run DFT-D3 single point of the particle with dimer basis set
| 50> $new_job
| 51> %base "3-27_DFT_B"
| 52> ! wB97X-D3 def2-TZVP TIGHTSCF CHELPG PMODEL
| 53>
| 54> %scf
| 55> MaxIter 1000
| 56> end
| 57>
| 58> * xyz 0 1
| 59>   C                    : -1.479890            -2.782146            -10.347695
| 60>   O                    : -2.119262            -3.328411            -11.446586
| 61>   H                    : -1.445049            -3.506653            -12.123038
| 62>   H                    : -2.045989            -2.790401            -9.457301
| 63>   H                    : -0.487859            -3.274771            -10.077993
| 64>   H                    : -1.208709            -1.733125            -10.415487
| 65>   C                      -0.791894            0.153209             -7.293953
| 66>   O                      -0.429146            0.665434             -6.098540
| 67>   H                      -0.963668            0.273240             -5.400980
| 68>   H                      -1.837251            0.451589             -7.599444
| 69>   H                      -0.115426            0.306201             -8.126156
| 70>   H                      -0.855482            -0.922665            -7.269317
| 71> *
| 72>
| 73>                          ****END OF INPUT****
 Total Charge           Charge          ....    0
 Multiplicity           Mult            ....    1
 Number of Electrons    NEL             ....   36
Dispersion correction           -0.001220732
FINAL SINGLE POINT ENERGY      -231.462091292499
Dispersion correction           -0.000252274
FINAL SINGLE POINT ENERGY      -115.731297245149

CARTESIAN COORDINATES (ANGSTROEM)
---------------------------------
  C     -1.479890   -2.782146  -10.347695
  O     -2.119262   -3.328411  -11.446586
  H     -1.445049   -3.506653  -12.123038
  H     -2.045989   -2.790401   -9.457301
  H     -0.487859   -3.274771  -10.077993
  H     -1.208709   -1.733125  -10.415487
  C     -0.791894    0.153209   -7.293953
  O     -0.429146    0.665434   -6.098540
  H     -0.963668    0.273240   -5.400980
  H     -1.837251    0.451589   -7.599444
  H     -0.115426    0.306201   -8.126156
  H     -0.855482   -0.922665   -7.269317

 Multiplicity           Mult            ....    1
 Number of Electrons    NEL             ....   18
 Basis Dimension        Dim             ....  172

ORBITAL ENERGIES
----------------

  NO   OCC          E(Eh)            E(eV)
   0   2.0000     -19.232759      -523.3500
   1   2.0000     -10.308819      -280.5172
   2   2.0000      -1.157736       -31.5036
   3   2.0000      -0.795525       -21.6473
   4   2.0000      -0.628019       -17.0893
   5   2.0000      -0.547359       -14.8944
   6   2.0000      -0.536641       -14.6028
   7   2.0000      -0.426748       -11.6124
   8   2.0000      -0.368303       -10.0220
   9   0.0000       0.080429         2.1886
  10   0.0000       0.115017         3.1298
  11   0.0000       0.140446         3.8217
  12   0.0000       0.176052         4.7906
  13   0.0000       0.188842         5.1387

MULLIKEN ATOMIC CHARGES
-----------------------
   0 C :   -0.000123
   1 O :   -0.000023
   2 H :   -0.000003
   3 H :   -0.000641
   4 H :   -0.000003
   5 H :    0.000031
   6 C :   -0.159143
   7 O :   -0.459009
   8 H :    0.322803
   9 H :    0.081120
  10 H :    0.119544
  11 H :    0.095448
Sum of atomic charges:    0.0000000

LOEWDIN ATOMIC CHARGES
----------------------
   0 C :   -0.001205
   1 O :   -0.000009
   2 H :   -0.000004
   3 H :   -0.000670
   4 H :   -0.000084
   5 H :   -0.000271
   6 C :   -0.442927
   7 O :   -0.025696
   8 H :    0.179752
   9 H :    0.095423
  10 H :    0.106643
  11 H :    0.089049

  Mayer bond orders larger than 0.1
B(  6-C ,  7-O ) :   1.0149 B(  6-C ,  9-H ) :   0.9775 B(  6-C , 10-H ) :   0.9679
B(  6-C , 11-H ) :   0.9852 B(  7-O ,  8-H ) :   0.8910

Dispersion correction           -0.000224110
FINAL SINGLE POINT ENERGY      -115.730095568901

DIPOLE MOMENT
-------------
                                X             Y             Z
Electronic contribution:      0.73049       0.90157       1.62131
Nuclear contribution   :     -1.17230      -1.36949      -1.59182
                        -----------------------------------------
Total Dipole Moment    :     -0.44181      -0.46793       0.02949
                        -----------------------------------------
Magnitude (a.u.)       :      0.64422
Magnitude (Debye)      :      1.63748

Rotational constants in cm-1:     4.458004     0.880615     0.847968
Rotational constants in MHz : 133647.591927 26400.187874 25421.453858

                             ****ORCA TERMINATED NORMALLY****
TOTAL RUN TIME: 0 days 0 hours 6 minutes 24 seconds 561 msec
