                         Program Version 4.1.2  - RELEASE  -
|  1> #Run DFT-D3 single point of the dimer
|  2> ! wB97X-D3 def2-TZVP TIGHTSCF CHELPG PMODEL PAL8
|  3>
|  4> %base "7-78_DFT_AB"
|  5>
|  6> %scf
|  7> MaxIter 1000
|  8> end
|  9>
| 10> * xyz 0 1
| 11>   C                      7.285926             0.821066             2.316241
| 12>   O                      7.532912             0.471736             1.007627
| 13>   H                      8.045949             -0.406475            0.930814
| 14>   H                      7.486048             -0.087081            3.004934
| 15>   H                      7.841240             1.695538             2.765298
| 16>   H                      6.188296             0.937388             2.320612
| 17>   C                      7.788554             -4.199389            3.523042
| 18>   O                      7.110312             -3.736970            4.686271
| 19>   H                      7.677281             -3.734452            5.428922
| 20>   H                      8.106648             -3.425837            2.875663
| 21>   H                      8.648913             -4.875439            3.708595
| 22>   H                      7.091599             -4.839618            2.976743
| 23> *
| 24>
| 25> #Run DFT-D3 single point of the molecule with dimer basis set
| 26> $new_job
| 27> %base "7-78_DFT_A"
| 28> ! wB97X-D3 def2-TZVP TIGHTSCF CHELPG PMODEL
| 29>
| 30> %scf
| 31> MaxIter 1000
| 32> end
| 33>
| 34> * xyz 0 1
| 35>   C                      7.285926             0.821066             2.316241
| 36>   O                      7.532912             0.471736             1.007627
| 37>   H                      8.045949             -0.406475            0.930814
| 38>   H                      7.486048             -0.087081            3.004934
| 39>   H                      7.841240             1.695538             2.765298
| 40>   H                      6.188296             0.937388             2.320612
| 41>   C                    : 7.788554             -4.199389            3.523042
| 42>   O                    : 7.110312             -3.736970            4.686271
| 43>   H                    : 7.677281             -3.734452            5.428922
| 44>   H                    : 8.106648             -3.425837            2.875663
| 45>   H                    : 8.648913             -4.875439            3.708595
| 46>   H                    : 7.091599             -4.839618            2.976743
| 47> *
| 48>
| 49> #Run DFT-D3 single point of the particle with dimer basis set
| 50> $new_job
| 51> %base "7-78_DFT_B"
| 52> ! wB97X-D3 def2-TZVP TIGHTSCF CHELPG PMODEL
| 53>
| 54> %scf
| 55> MaxIter 1000
| 56> end
| 57>
| 58> * xyz 0 1
| 59>   C                    : 7.285926             0.821066             2.316241
| 60>   O                    : 7.532912             0.471736             1.007627
| 61>   H                    : 8.045949             -0.406475            0.930814
| 62>   H                    : 7.486048             -0.087081            3.004934
| 63>   H                    : 7.841240             1.695538             2.765298
| 64>   H                    : 6.188296             0.937388             2.320612
| 65>   C                      7.788554             -4.199389            3.523042
| 66>   O                      7.110312             -3.736970            4.686271
| 67>   H                      7.677281             -3.734452            5.428922
| 68>   H                      8.106648             -3.425837            2.875663
| 69>   H                      8.648913             -4.875439            3.708595
| 70>   H                      7.091599             -4.839618            2.976743
| 71> *
| 72>
| 73>                          ****END OF INPUT****
 Total Charge           Charge          ....    0
 Multiplicity           Mult            ....    1
 Number of Electrons    NEL             ....   36
Dispersion correction           -0.000920569
FINAL SINGLE POINT ENERGY      -231.457572741364
Dispersion correction           -0.000256815
FINAL SINGLE POINT ENERGY      -115.723467543694

CARTESIAN COORDINATES (ANGSTROEM)
---------------------------------
  C      7.285926    0.821066    2.316241
  O      7.532912    0.471736    1.007627
  H      8.045949   -0.406475    0.930814
  H      7.486048   -0.087081    3.004934
  H      7.841240    1.695538    2.765298
  H      6.188296    0.937388    2.320612
  C      7.788554   -4.199389    3.523042
  O      7.110312   -3.736970    4.686271
  H      7.677281   -3.734452    5.428922
  H      8.106648   -3.425837    2.875663
  H      8.648913   -4.875439    3.708595
  H      7.091599   -4.839618    2.976743

 Multiplicity           Mult            ....    1
 Number of Electrons    NEL             ....   18
 Basis Dimension        Dim             ....  172

ORBITAL ENERGIES
----------------

  NO   OCC          E(Eh)            E(eV)
   0   2.0000     -19.228001      -523.2205
   1   2.0000     -10.311510      -280.5904
   2   2.0000      -1.136476       -30.9251
   3   2.0000      -0.802629       -21.8407
   4   2.0000      -0.614466       -16.7205
   5   2.0000      -0.545511       -14.8441
   6   2.0000      -0.522122       -14.2077
   7   2.0000      -0.430721       -11.7205
   8   2.0000      -0.377440       -10.2707
   9   0.0000       0.088266         2.4018
  10   0.0000       0.120532         3.2798
  11   0.0000       0.147702         4.0192
  12   0.0000       0.170922         4.6510
  13   0.0000       0.187867         5.1121

MULLIKEN ATOMIC CHARGES
-----------------------
   0 C :   -0.000033
   1 O :    0.000040
   2 H :   -0.000030
   3 H :   -0.000554
   4 H :   -0.000007
   5 H :   -0.000017
   6 C :   -0.171631
   7 O :   -0.477297
   8 H :    0.312585
   9 H :    0.115019
  10 H :    0.106054
  11 H :    0.115871
Sum of atomic charges:   -0.0000000

LOEWDIN ATOMIC CHARGES
----------------------
   0 C :   -0.000092
   1 O :   -0.000012
   2 H :   -0.000221
   3 H :   -0.000345
   4 H :   -0.000001
   5 H :   -0.000002
   6 C :   -0.374571
   7 O :   -0.070269
   8 H :    0.150111
   9 H :    0.088835
  10 H :    0.100246
  11 H :    0.106319

  Mayer bond orders larger than 0.1
B(  6-C ,  7-O ) :   1.0040 B(  6-C ,  9-H ) :   0.9700 B(  6-C , 10-H ) :   0.9796
B(  6-C , 11-H ) :   0.9795 B(  7-O ,  8-H ) :   0.9043

Dispersion correction           -0.000263297
FINAL SINGLE POINT ENERGY      -115.733755122277

DIPOLE MOMENT
-------------
                                X             Y             Z
Electronic contribution:     -0.91357       0.72214       1.45086
Nuclear contribution   :      1.56931      -0.92681      -1.43517
                        -----------------------------------------
Total Dipole Moment    :      0.65573      -0.20466       0.01569
                        -----------------------------------------
Magnitude (a.u.)       :      0.68711
Magnitude (Debye)      :      1.74650

Rotational constants in cm-1:     4.493681     0.813676     0.789626
Rotational constants in MHz : 134717.154200 24393.406897 23672.378342

                             ****ORCA TERMINATED NORMALLY****
TOTAL RUN TIME: 0 days 0 hours 0 minutes 57 seconds 340 msec
