                         Program Version 4.1.2  - RELEASE  -
|  1> #Run DFT-D3 single point of the dimer
|  2> ! wB97X-D3 def2-TZVP TIGHTSCF CHELPG PMODEL PAL8
|  3>
|  4> %base "16-158_DFT_AB"
|  5>
|  6> %scf
|  7> MaxIter 1000
|  8> end
|  9>
| 10> * xyz 0 1
| 11>   C                      1.713433             -5.196340            6.770740
| 12>   O                      1.791775             -5.028510            8.127956
| 13>   H                      1.810049             -5.951920            8.498394
| 14>   H                      1.500596             -4.238577            6.340873
| 15>   H                      2.666201             -5.539737            6.312505
| 16>   H                      0.880092             -5.841664            6.551515
| 17>   C                      0.911363             -8.439596            9.086391
| 18>   O                      2.026675             -7.599376            9.425141
| 19>   H                      2.761438             -8.201270            9.323782
| 20>   H                      0.176568             -8.332073            9.896364
| 21>   H                      0.433024             -8.229368            8.098772
| 22>   H                      1.205850             -9.505201            9.067586
| 23> *
| 24>
| 25> #Run DFT-D3 single point of the molecule with dimer basis set
| 26> $new_job
| 27> %base "16-158_DFT_A"
| 28> ! wB97X-D3 def2-TZVP TIGHTSCF CHELPG PMODEL
| 29>
| 30> %scf
| 31> MaxIter 1000
| 32> end
| 33>
| 34> * xyz 0 1
| 35>   C                      1.713433             -5.196340            6.770740
| 36>   O                      1.791775             -5.028510            8.127956
| 37>   H                      1.810049             -5.951920            8.498394
| 38>   H                      1.500596             -4.238577            6.340873
| 39>   H                      2.666201             -5.539737            6.312505
| 40>   H                      0.880092             -5.841664            6.551515
| 41>   C                    : 0.911363             -8.439596            9.086391
| 42>   O                    : 2.026675             -7.599376            9.425141
| 43>   H                    : 2.761438             -8.201270            9.323782
| 44>   H                    : 0.176568             -8.332073            9.896364
| 45>   H                    : 0.433024             -8.229368            8.098772
| 46>   H                    : 1.205850             -9.505201            9.067586
| 47> *
| 48>
| 49> #Run DFT-D3 single point of the particle with dimer basis set
| 50> $new_job
| 51> %base "16-158_DFT_B"
| 52> ! wB97X-D3 def2-TZVP TIGHTSCF CHELPG PMODEL
| 53>
| 54> %scf
| 55> MaxIter 1000
| 56> end
| 57>
| 58> * xyz 0 1
| 59>   C                    : 1.713433             -5.196340            6.770740
| 60>   O                    : 1.791775             -5.028510            8.127956
| 61>   H                    : 1.810049             -5.951920            8.498394
| 62>   H                    : 1.500596             -4.238577            6.340873
| 63>   H                    : 2.666201             -5.539737            6.312505
| 64>   H                    : 0.880092             -5.841664            6.551515
| 65>   C                      0.911363             -8.439596            9.086391
| 66>   O                      2.026675             -7.599376            9.425141
| 67>   H                      2.761438             -8.201270            9.323782
| 68>   H                      0.176568             -8.332073            9.896364
| 69>   H                      0.433024             -8.229368            8.098772
| 70>   H                      1.205850             -9.505201            9.067586
| 71> *
| 72>
| 73>                          ****END OF INPUT****
 Total Charge           Charge          ....    0
 Multiplicity           Mult            ....    1
 Number of Electrons    NEL             ....   36
Dispersion correction           -0.001887405
FINAL SINGLE POINT ENERGY      -231.474650322721
Dispersion correction           -0.000210349
FINAL SINGLE POINT ENERGY      -115.733007886111

CARTESIAN COORDINATES (ANGSTROEM)
---------------------------------
  C      1.713433   -5.196340    6.770740
  O      1.791775   -5.028510    8.127956
  H      1.810049   -5.951920    8.498394
  H      1.500596   -4.238577    6.340873
  H      2.666201   -5.539737    6.312505
  H      0.880092   -5.841664    6.551515
  C      0.911363   -8.439596    9.086391
  O      2.026675   -7.599376    9.425141
  H      2.761438   -8.201270    9.323782
  H      0.176568   -8.332073    9.896364
  H      0.433024   -8.229368    8.098772
  H      1.205850   -9.505201    9.067586

 Multiplicity           Mult            ....    1
 Number of Electrons    NEL             ....   18
 Basis Dimension        Dim             ....  172

ORBITAL ENERGIES
----------------

  NO   OCC          E(Eh)            E(eV)
   0   2.0000     -19.233447      -523.3687
   1   2.0000     -10.319997      -280.8214
   2   2.0000      -1.135991       -30.9119
   3   2.0000      -0.791447       -21.5364
   4   2.0000      -0.609476       -16.5847
   5   2.0000      -0.538491       -14.6531
   6   2.0000      -0.521081       -14.1793
   7   2.0000      -0.441276       -12.0077
   8   2.0000      -0.376962       -10.2577
   9   0.0000       0.095354         2.5947
  10   0.0000       0.122549         3.3347
  11   0.0000       0.150196         4.0870
  12   0.0000       0.186845         5.0843
  13   0.0000       0.196100         5.3361

MULLIKEN ATOMIC CHARGES
-----------------------
   0 C :   -0.003574
   1 O :   -0.000943
   2 H :   -0.001179
   3 H :   -0.000268
   4 H :   -0.000324
   5 H :    0.000215
   6 C :   -0.185556
   7 O :   -0.461434
   8 H :    0.313531
   9 H :    0.119937
  10 H :    0.111223
  11 H :    0.108373
Sum of atomic charges:    0.0000000

LOEWDIN ATOMIC CHARGES
----------------------
   0 C :   -0.003204
   1 O :   -0.004872
   2 H :   -0.045065
   3 H :   -0.000072
   4 H :   -0.000262
   5 H :   -0.000787
   6 C :   -0.373850
   7 O :   -0.046446
   8 H :    0.167390
   9 H :    0.104518
  10 H :    0.102746
  11 H :    0.099903

  Mayer bond orders larger than 0.1
B(  6-C ,  7-O ) :   0.9903 B(  6-C ,  9-H ) :   0.9807 B(  6-C , 10-H ) :   0.9673
B(  6-C , 11-H ) :   0.9799 B(  7-O ,  8-H ) :   0.9038

Dispersion correction           -0.000252862
FINAL SINGLE POINT ENERGY      -115.733507475675

DIPOLE MOMENT
-------------
                                X             Y             Z
Electronic contribution:      1.35172       1.25207       0.42050
Nuclear contribution   :     -1.31814      -1.98580      -0.59868
                        -----------------------------------------
Total Dipole Moment    :      0.03358      -0.73373      -0.17818
                        -----------------------------------------
Magnitude (a.u.)       :      0.75580
Magnitude (Debye)      :      1.92110

Rotational constants in cm-1:     4.185104     0.811441     0.784444
Rotational constants in MHz : 125466.258432 24326.379727 23517.048381

                             ****ORCA TERMINATED NORMALLY****
TOTAL RUN TIME: 0 days 0 hours 1 minutes 6 seconds 50 msec
