                         Program Version 4.1.2  - RELEASE  -
|  1> #Run DFT-D3 single point of the dimer
|  2> ! wB97X-D3 def2-TZVP TIGHTSCF CHELPG PMODEL PAL8
|  3>
|  4> %base "19-58_DFT_AB"
|  5>
|  6> %scf
|  7> MaxIter 1000
|  8> end
|  9>
| 10> * xyz 0 1
| 11>   C                      7.735640             -3.628557            -5.394134
| 12>   O                      6.374040             -3.628548            -5.142410
| 13>   H                      5.933957             -4.477045            -5.105908
| 14>   H                      8.304852             -3.877057            -4.570331
| 15>   H                      7.857922             -4.475036            -6.074864
| 16>   H                      8.076524             -2.769222            -5.967372
| 17>   C                      4.786815             -6.918655            -5.102293
| 18>   O                      5.975221             -6.467177            -5.763916
| 19>   H                      5.586546             -5.956710            -6.485934
| 20>   H                      3.852278             -6.570519            -5.593039
| 21>   H                      4.767182             -8.010396            -5.028749
| 22>   H                      4.846948             -6.625967            -4.050205
| 23> *
| 24>
| 25> #Run DFT-D3 single point of the molecule with dimer basis set
| 26> $new_job
| 27> %base "19-58_DFT_A"
| 28> ! wB97X-D3 def2-TZVP TIGHTSCF CHELPG PMODEL
| 29>
| 30> %scf
| 31> MaxIter 1000
| 32> end
| 33>
| 34> * xyz 0 1
| 35>   C                      7.735640             -3.628557            -5.394134
| 36>   O                      6.374040             -3.628548            -5.142410
| 37>   H                      5.933957             -4.477045            -5.105908
| 38>   H                      8.304852             -3.877057            -4.570331
| 39>   H                      7.857922             -4.475036            -6.074864
| 40>   H                      8.076524             -2.769222            -5.967372
| 41>   C                    : 4.786815             -6.918655            -5.102293
| 42>   O                    : 5.975221             -6.467177            -5.763916
| 43>   H                    : 5.586546             -5.956710            -6.485934
| 44>   H                    : 3.852278             -6.570519            -5.593039
| 45>   H                    : 4.767182             -8.010396            -5.028749
| 46>   H                    : 4.846948             -6.625967            -4.050205
| 47> *
| 48>
| 49> #Run DFT-D3 single point of the particle with dimer basis set
| 50> $new_job
| 51> %base "19-58_DFT_B"
| 52> ! wB97X-D3 def2-TZVP TIGHTSCF CHELPG PMODEL
| 53>
| 54> %scf
| 55> MaxIter 1000
| 56> end
| 57>
| 58> * xyz 0 1
| 59>   C                    : 7.735640             -3.628557            -5.394134
| 60>   O                    : 6.374040             -3.628548            -5.142410
| 61>   H                    : 5.933957             -4.477045            -5.105908
| 62>   H                    : 8.304852             -3.877057            -4.570331
| 63>   H                    : 7.857922             -4.475036            -6.074864
| 64>   H                    : 8.076524             -2.769222            -5.967372
| 65>   C                      4.786815             -6.918655            -5.102293
| 66>   O                      5.975221             -6.467177            -5.763916
| 67>   H                      5.586546             -5.956710            -6.485934
| 68>   H                      3.852278             -6.570519            -5.593039
| 69>   H                      4.767182             -8.010396            -5.028749
| 70>   H                      4.846948             -6.625967            -4.050205
| 71> *
| 72>
| 73>                          ****END OF INPUT****
 Total Charge           Charge          ....    0
 Multiplicity           Mult            ....    1
 Number of Electrons    NEL             ....   36
Dispersion correction           -0.001951359
FINAL SINGLE POINT ENERGY      -231.462597875938
Dispersion correction           -0.000222511
FINAL SINGLE POINT ENERGY      -115.725643320674

CARTESIAN COORDINATES (ANGSTROEM)
---------------------------------
  C      7.735640   -3.628557   -5.394134
  O      6.374040   -3.628548   -5.142410
  H      5.933957   -4.477045   -5.105908
  H      8.304852   -3.877057   -4.570331
  H      7.857922   -4.475036   -6.074864
  H      8.076524   -2.769222   -5.967372
  C      4.786815   -6.918655   -5.102293
  O      5.975221   -6.467177   -5.763916
  H      5.586546   -5.956710   -6.485934
  H      3.852278   -6.570519   -5.593039
  H      4.767182   -8.010396   -5.028749
  H      4.846948   -6.625967   -4.050205

 Multiplicity           Mult            ....    1
 Number of Electrons    NEL             ....   18
 Basis Dimension        Dim             ....  172

ORBITAL ENERGIES
----------------

  NO   OCC          E(Eh)            E(eV)
   0   2.0000     -19.234659      -523.4017
   1   2.0000     -10.316910      -280.7374
   2   2.0000      -1.135753       -30.9054
   3   2.0000      -0.792351       -21.5610
   4   2.0000      -0.608758       -16.5651
   5   2.0000      -0.531475       -14.4622
   6   2.0000      -0.528541       -14.3823
   7   2.0000      -0.448846       -12.2137
   8   2.0000      -0.372092       -10.1251
   9   0.0000       0.092601         2.5198
  10   0.0000       0.125222         3.4075
  11   0.0000       0.153164         4.1678
  12   0.0000       0.182622         4.9694
  13   0.0000       0.197629         5.3778

MULLIKEN ATOMIC CHARGES
-----------------------
   0 C :    0.009160
   1 O :    0.002270
   2 H :   -0.021905
   3 H :   -0.001491
   4 H :   -0.006738
   5 H :   -0.000093
   6 C :   -0.193717
   7 O :   -0.446898
   8 H :    0.316903
   9 H :    0.107590
  10 H :    0.117790
  11 H :    0.117128
Sum of atomic charges:    0.0000000

LOEWDIN ATOMIC CHARGES
----------------------
   0 C :   -0.007226
   1 O :   -0.005527
   2 H :   -0.028180
   3 H :   -0.000333
   4 H :   -0.004847
   5 H :   -0.000075
   6 C :   -0.379517
   7 O :   -0.058699
   8 H :    0.178907
   9 H :    0.101754
  10 H :    0.100797
  11 H :    0.102947

  Mayer bond orders larger than 0.1
B(  6-C ,  7-O ) :   0.9976 B(  6-C ,  9-H ) :   0.9808 B(  6-C , 10-H ) :   0.9746
B(  6-C , 11-H ) :   0.9833 B(  7-O ,  8-H ) :   0.9013

Dispersion correction           -0.000246955
FINAL SINGLE POINT ENERGY      -115.732544422134

DIPOLE MOMENT
-------------
                                X             Y             Z
Electronic contribution:      1.58517       0.54065      -0.80849
Nuclear contribution   :     -2.29531      -0.42376       0.62111
                        -----------------------------------------
Total Dipole Moment    :     -0.71014       0.11690      -0.18738
                        -----------------------------------------
Magnitude (a.u.)       :      0.74369
Magnitude (Debye)      :      1.89030

Rotational constants in cm-1:     4.187381     0.826516     0.783148
Rotational constants in MHz : 125534.515977 24778.328866 23478.171702

                             ****ORCA TERMINATED NORMALLY****
TOTAL RUN TIME: 0 days 0 hours 0 minutes 52 seconds 148 msec
