                         Program Version 4.1.2  - RELEASE  -
|  1> #Run DFT-D3 single point of the dimer
|  2> ! wB97X-D3 def2-TZVP TIGHTSCF CHELPG PMODEL PAL8
|  3>
|  4> %base "5-132_DFT_AB"
|  5>
|  6> %scf
|  7> MaxIter 1000
|  8> end
|  9>
| 10> * xyz 0 1
| 11>   C                      -7.477111            -4.456450            -6.946488
| 12>   O                      -7.988286            -4.822817            -5.665183
| 13>   H                      -7.892709            -4.108142            -5.012299
| 14>   H                      -6.388501            -4.259669            -7.003349
| 15>   H                      -7.612256            -5.270702            -7.671501
| 16>   H                      -7.996882            -3.590406            -7.298455
| 17>   C                      -10.431865           -7.477750            -6.751600
| 18>   O                      -9.758328            -8.725350            -6.439824
| 19>   H                      -9.338538            -9.047118            -7.218534
| 20>   H                      -11.368914           -7.722481            -7.383089
| 21>   H                      -10.707634           -6.859162            -5.857968
| 22>   H                      -9.774949            -6.808374            -7.376511
| 23> *
| 24>
| 25> #Run DFT-D3 single point of the molecule with dimer basis set
| 26> $new_job
| 27> %base "5-132_DFT_A"
| 28> ! wB97X-D3 def2-TZVP TIGHTSCF CHELPG PMODEL
| 29>
| 30> %scf
| 31> MaxIter 1000
| 32> end
| 33>
| 34> * xyz 0 1
| 35>   C                      -7.477111            -4.456450            -6.946488
| 36>   O                      -7.988286            -4.822817            -5.665183
| 37>   H                      -7.892709            -4.108142            -5.012299
| 38>   H                      -6.388501            -4.259669            -7.003349
| 39>   H                      -7.612256            -5.270702            -7.671501
| 40>   H                      -7.996882            -3.590406            -7.298455
| 41>   C                    : -10.431865           -7.477750            -6.751600
| 42>   O                    : -9.758328            -8.725350            -6.439824
| 43>   H                    : -9.338538            -9.047118            -7.218534
| 44>   H                    : -11.368914           -7.722481            -7.383089
| 45>   H                    : -10.707634           -6.859162            -5.857968
| 46>   H                    : -9.774949            -6.808374            -7.376511
| 47> *
| 48>
| 49> #Run DFT-D3 single point of the particle with dimer basis set
| 50> $new_job
| 51> %base "5-132_DFT_B"
| 52> ! wB97X-D3 def2-TZVP TIGHTSCF CHELPG PMODEL
| 53>
| 54> %scf
| 55> MaxIter 1000
| 56> end
| 57>
| 58> * xyz 0 1
| 59>   C                    : -7.477111            -4.456450            -6.946488
| 60>   O                    : -7.988286            -4.822817            -5.665183
| 61>   H                    : -7.892709            -4.108142            -5.012299
| 62>   H                    : -6.388501            -4.259669            -7.003349
| 63>   H                    : -7.612256            -5.270702            -7.671501
| 64>   H                    : -7.996882            -3.590406            -7.298455
| 65>   C                      -10.431865           -7.477750            -6.751600
| 66>   O                      -9.758328            -8.725350            -6.439824
| 67>   H                      -9.338538            -9.047118            -7.218534
| 68>   H                      -11.368914           -7.722481            -7.383089
| 69>   H                      -10.707634           -6.859162            -5.857968
| 70>   H                      -9.774949            -6.808374            -7.376511
| 71> *
| 72>
| 73>                          ****END OF INPUT****
 Total Charge           Charge          ....    0
 Multiplicity           Mult            ....    1
 Number of Electrons    NEL             ....   36
Dispersion correction           -0.001508767
FINAL SINGLE POINT ENERGY      -231.465628524993
Dispersion correction           -0.000264708
FINAL SINGLE POINT ENERGY      -115.734557520813

CARTESIAN COORDINATES (ANGSTROEM)
---------------------------------
  C     -7.477111   -4.456450   -6.946488
  O     -7.988286   -4.822817   -5.665183
  H     -7.892709   -4.108142   -5.012299
  H     -6.388501   -4.259669   -7.003349
  H     -7.612256   -5.270702   -7.671501
  H     -7.996882   -3.590406   -7.298455
  C    -10.431865   -7.477750   -6.751600
  O     -9.758328   -8.725350   -6.439824
  H     -9.338538   -9.047118   -7.218534
  H    -11.368914   -7.722481   -7.383089
  H    -10.707634   -6.859162   -5.857968
  H     -9.774949   -6.808374   -7.376511

 Multiplicity           Mult            ....    1
 Number of Electrons    NEL             ....   18
 Basis Dimension        Dim             ....  172

ORBITAL ENERGIES
----------------

  NO   OCC          E(Eh)            E(eV)
   0   2.0000     -19.229224      -523.2538
   1   2.0000     -10.331083      -281.1231
   2   2.0000      -1.129177       -30.7265
   3   2.0000      -0.790074       -21.4990
   4   2.0000      -0.603982       -16.4352
   5   2.0000      -0.533473       -14.5165
   6   2.0000      -0.521722       -14.1968
   7   2.0000      -0.432382       -11.7657
   8   2.0000      -0.373536       -10.1644
   9   0.0000       0.081588         2.2201
  10   0.0000       0.119264         3.2453
  11   0.0000       0.147916         4.0250
  12   0.0000       0.157370         4.2822
  13   0.0000       0.190129         5.1737

MULLIKEN ATOMIC CHARGES
-----------------------
   0 C :   -0.001292
   1 O :    0.000090
   2 H :   -0.000025
   3 H :   -0.000017
   4 H :    0.001500
   5 H :    0.000129
   6 C :   -0.181352
   7 O :   -0.476735
   8 H :    0.314319
   9 H :    0.109336
  10 H :    0.129206
  11 H :    0.104842
Sum of atomic charges:    0.0000000

LOEWDIN ATOMIC CHARGES
----------------------
   0 C :   -0.002636
   1 O :   -0.000481
   2 H :   -0.000037
   3 H :   -0.000028
   4 H :   -0.001833
   5 H :   -0.000052
   6 C :   -0.371516
   7 O :   -0.097466
   8 H :    0.153924
   9 H :    0.105862
  10 H :    0.113825
  11 H :    0.100439

  Mayer bond orders larger than 0.1
B(  6-C ,  7-O ) :   0.9895 B(  6-C ,  9-H ) :   0.9726 B(  6-C , 10-H ) :   0.9678
B(  6-C , 11-H ) :   0.9743 B(  7-O ,  8-H ) :   0.9011

Dispersion correction           -0.000273224
FINAL SINGLE POINT ENERGY      -115.730439479361

DIPOLE MOMENT
-------------
                                X             Y             Z
Electronic contribution:      0.82747      -1.57610       0.64507
Nuclear contribution   :     -0.81657       1.89724      -1.26196
                        -----------------------------------------
Total Dipole Moment    :      0.01091       0.32113      -0.61689
                        -----------------------------------------
Magnitude (a.u.)       :      0.69555
Magnitude (Debye)      :      1.76795

Rotational constants in cm-1:     4.107829     0.783608     0.761375
Rotational constants in MHz : 123149.610267 23491.965769 22825.436815

                             ****ORCA TERMINATED NORMALLY****
TOTAL RUN TIME: 0 days 0 hours 0 minutes 50 seconds 879 msec
