                         Program Version 4.1.2  - RELEASE  -
|  1> #Run DFT-D3 single point of the dimer
|  2> ! wB97X-D3 def2-TZVP TIGHTSCF CHELPG PMODEL PAL8
|  3>
|  4> %base "19-81_DFT_AB"
|  5>
|  6> %scf
|  7> MaxIter 1000
|  8> end
|  9>
| 10> * xyz 0 1
| 11>   C                      1.790265             3.458561             8.299905
| 12>   O                      0.760315             4.348827             7.951540
| 13>   H                      0.700689             4.320397             6.985783
| 14>   H                      2.747720             4.048782             8.453165
| 15>   H                      1.540345             2.807398             9.173545
| 16>   H                      2.017215             2.823354             7.489023
| 17>   C                      -0.942349            -0.312623            6.462802
| 18>   O                      -1.254387            -1.464392            7.229617
| 19>   H                      -0.880571            -2.244624            6.848968
| 20>   H                      -1.109190            -0.446360            5.396069
| 21>   H                      -1.477128            0.535260             6.817403
| 22>   H                      0.090158             -0.179774            6.506438
| 23> *
| 24>
| 25> #Run DFT-D3 single point of the molecule with dimer basis set
| 26> $new_job
| 27> %base "19-81_DFT_A"
| 28> ! wB97X-D3 def2-TZVP TIGHTSCF CHELPG PMODEL
| 29>
| 30> %scf
| 31> MaxIter 1000
| 32> end
| 33>
| 34> * xyz 0 1
| 35>   C                      1.790265             3.458561             8.299905
| 36>   O                      0.760315             4.348827             7.951540
| 37>   H                      0.700689             4.320397             6.985783
| 38>   H                      2.747720             4.048782             8.453165
| 39>   H                      1.540345             2.807398             9.173545
| 40>   H                      2.017215             2.823354             7.489023
| 41>   C                    : -0.942349            -0.312623            6.462802
| 42>   O                    : -1.254387            -1.464392            7.229617
| 43>   H                    : -0.880571            -2.244624            6.848968
| 44>   H                    : -1.109190            -0.446360            5.396069
| 45>   H                    : -1.477128            0.535260             6.817403
| 46>   H                    : 0.090158             -0.179774            6.506438
| 47> *
| 48>
| 49> #Run DFT-D3 single point of the particle with dimer basis set
| 50> $new_job
| 51> %base "19-81_DFT_B"
| 52> ! wB97X-D3 def2-TZVP TIGHTSCF CHELPG PMODEL
| 53>
| 54> %scf
| 55> MaxIter 1000
| 56> end
| 57>
| 58> * xyz 0 1
| 59>   C                    : 1.790265             3.458561             8.299905
| 60>   O                    : 0.760315             4.348827             7.951540
| 61>   H                    : 0.700689             4.320397             6.985783
| 62>   H                    : 2.747720             4.048782             8.453165
| 63>   H                    : 1.540345             2.807398             9.173545
| 64>   H                    : 2.017215             2.823354             7.489023
| 65>   C                      -0.942349            -0.312623            6.462802
| 66>   O                      -1.254387            -1.464392            7.229617
| 67>   H                      -0.880571            -2.244624            6.848968
| 68>   H                      -1.109190            -0.446360            5.396069
| 69>   H                      -1.477128            0.535260             6.817403
| 70>   H                      0.090158             -0.179774            6.506438
| 71> *
| 72>
| 73>                          ****END OF INPUT****
 Total Charge           Charge          ....    0
 Multiplicity           Mult            ....    1
 Number of Electrons    NEL             ....   36
Dispersion correction           -0.000799065
FINAL SINGLE POINT ENERGY      -231.463706940648
Dispersion correction           -0.000237640
FINAL SINGLE POINT ENERGY      -115.731528857256

CARTESIAN COORDINATES (ANGSTROEM)
---------------------------------
  C      1.790265    3.458561    8.299905
  O      0.760315    4.348827    7.951540
  H      0.700689    4.320397    6.985783
  H      2.747720    4.048782    8.453165
  H      1.540345    2.807398    9.173545
  H      2.017215    2.823354    7.489023
  C     -0.942349   -0.312623    6.462802
  O     -1.254387   -1.464392    7.229617
  H     -0.880571   -2.244624    6.848968
  H     -1.109190   -0.446360    5.396069
  H     -1.477128    0.535260    6.817403
  H      0.090158   -0.179774    6.506438

 Multiplicity           Mult            ....    1
 Number of Electrons    NEL             ....   18
 Basis Dimension        Dim             ....  172

ORBITAL ENERGIES
----------------

  NO   OCC          E(Eh)            E(eV)
   0   2.0000     -19.224213      -523.1174
   1   2.0000     -10.303920      -280.3839
   2   2.0000      -1.133739       -30.8506
   3   2.0000      -0.804998       -21.9051
   4   2.0000      -0.616134       -16.7659
   5   2.0000      -0.543744       -14.7960
   6   2.0000      -0.530081       -14.4242
   7   2.0000      -0.435614       -11.8537
   8   2.0000      -0.369655       -10.0588
   9   0.0000       0.084160         2.2901
  10   0.0000       0.118197         3.2163
  11   0.0000       0.153666         4.1815
  12   0.0000       0.164992         4.4897
  13   0.0000       0.187545         5.1034

MULLIKEN ATOMIC CHARGES
-----------------------
   0 C :    0.000127
   1 O :   -0.000004
   2 H :   -0.000013
   3 H :   -0.000010
   4 H :   -0.000001
   5 H :   -0.000305
   6 C :   -0.153587
   7 O :   -0.487146
   8 H :    0.311900
   9 H :    0.098081
  10 H :    0.123516
  11 H :    0.107441
Sum of atomic charges:   -0.0000000

LOEWDIN ATOMIC CHARGES
----------------------
   0 C :   -0.000160
   1 O :   -0.000005
   2 H :   -0.000012
   3 H :   -0.000002
   4 H :   -0.000016
   5 H :   -0.000215
   6 C :   -0.364645
   7 O :   -0.076347
   8 H :    0.156822
   9 H :    0.094454
  10 H :    0.104262
  11 H :    0.085863

  Mayer bond orders larger than 0.1
B(  6-C ,  7-O ) :   0.9861 B(  6-C ,  9-H ) :   0.9769 B(  6-C , 10-H ) :   0.9726
B(  6-C , 11-H ) :   0.9842 B(  7-O ,  8-H ) :   0.9009

Dispersion correction           -0.000226066
FINAL SINGLE POINT ENERGY      -115.732013510361

DIPOLE MOMENT
-------------
                                X             Y             Z
Electronic contribution:     -0.51689      -1.28184       1.09049
Nuclear contribution   :      0.90423       1.26030      -1.66258
                        -----------------------------------------
Total Dipole Moment    :      0.38734      -0.02154      -0.57209
                        -----------------------------------------
Magnitude (a.u.)       :      0.69122
Magnitude (Debye)      :      1.75693

Rotational constants in cm-1:     4.546040     0.835950     0.798037
Rotational constants in MHz : 136286.836904 25061.149843 23924.535478

                             ****ORCA TERMINATED NORMALLY****
TOTAL RUN TIME: 0 days 0 hours 2 minutes 21 seconds 449 msec
