                         Program Version 4.1.2  - RELEASE  -
|  1> #Run DFT-D3 single point of the dimer
|  2> ! wB97X-D3 def2-TZVP TIGHTSCF CHELPG PMODEL PAL8
|  3>
|  4> %base "6-199_DFT_AB"
|  5>
|  6> %scf
|  7> MaxIter 1000
|  8> end
|  9>
| 10> * xyz 0 1
| 11>   C                      9.326026             -1.034013            -4.850640
| 12>   O                      9.129748             0.229723             -4.212329
| 13>   H                      9.307902             0.803627             -4.958503
| 14>   H                      8.687239             -1.144109            -5.750024
| 15>   H                      10.268350            -1.176932            -5.338406
| 16>   H                      9.144970             -1.879599            -4.214417
| 17>   C                      10.496813            2.291172             -6.767728
| 18>   O                      9.821353             2.781170             -5.605187
| 19>   H                      9.984331             3.730434             -5.581937
| 20>   H                      10.211771            1.257417             -6.891050
| 21>   H                      10.150173            2.744717             -7.698629
| 22>   H                      11.557747            2.318200             -6.612343
| 23> *
| 24>
| 25> #Run DFT-D3 single point of the molecule with dimer basis set
| 26> $new_job
| 27> %base "6-199_DFT_A"
| 28> ! wB97X-D3 def2-TZVP TIGHTSCF CHELPG PMODEL
| 29>
| 30> %scf
| 31> MaxIter 1000
| 32> end
| 33>
| 34> * xyz 0 1
| 35>   C                      9.326026             -1.034013            -4.850640
| 36>   O                      9.129748             0.229723             -4.212329
| 37>   H                      9.307902             0.803627             -4.958503
| 38>   H                      8.687239             -1.144109            -5.750024
| 39>   H                      10.268350            -1.176932            -5.338406
| 40>   H                      9.144970             -1.879599            -4.214417
| 41>   C                    : 10.496813            2.291172             -6.767728
| 42>   O                    : 9.821353             2.781170             -5.605187
| 43>   H                    : 9.984331             3.730434             -5.581937
| 44>   H                    : 10.211771            1.257417             -6.891050
| 45>   H                    : 10.150173            2.744717             -7.698629
| 46>   H                    : 11.557747            2.318200             -6.612343
| 47> *
| 48>
| 49> #Run DFT-D3 single point of the particle with dimer basis set
| 50> $new_job
| 51> %base "6-199_DFT_B"
| 52> ! wB97X-D3 def2-TZVP TIGHTSCF CHELPG PMODEL
| 53>
| 54> %scf
| 55> MaxIter 1000
| 56> end
| 57>
| 58> * xyz 0 1
| 59>   C                    : 9.326026             -1.034013            -4.850640
| 60>   O                    : 9.129748             0.229723             -4.212329
| 61>   H                    : 9.307902             0.803627             -4.958503
| 62>   H                    : 8.687239             -1.144109            -5.750024
| 63>   H                    : 10.268350            -1.176932            -5.338406
| 64>   H                    : 9.144970             -1.879599            -4.214417
| 65>   C                      10.496813            2.291172             -6.767728
| 66>   O                      9.821353             2.781170             -5.605187
| 67>   H                      9.984331             3.730434             -5.581937
| 68>   H                      10.211771            1.257417             -6.891050
| 69>   H                      10.150173            2.744717             -7.698629
| 70>   H                      11.557747            2.318200             -6.612343
| 71> *
| 72>
| 73>                          ****END OF INPUT****
 Total Charge           Charge          ....    0
 Multiplicity           Mult            ....    1
 Number of Electrons    NEL             ....   36
Dispersion correction           -0.001870762
FINAL SINGLE POINT ENERGY      -231.468217661121
Dispersion correction           -0.000229598
FINAL SINGLE POINT ENERGY      -115.729891079147

CARTESIAN COORDINATES (ANGSTROEM)
---------------------------------
  C      9.326026   -1.034013   -4.850640
  O      9.129748    0.229723   -4.212329
  H      9.307902    0.803627   -4.958503
  H      8.687239   -1.144109   -5.750024
  H     10.268350   -1.176932   -5.338406
  H      9.144970   -1.879599   -4.214417
  C     10.496813    2.291172   -6.767728
  O      9.821353    2.781170   -5.605187
  H      9.984331    3.730434   -5.581937
  H     10.211771    1.257417   -6.891050
  H     10.150173    2.744717   -7.698629
  H     11.557747    2.318200   -6.612343

 Multiplicity           Mult            ....    1
 Number of Electrons    NEL             ....   18
 Basis Dimension        Dim             ....  172

ORBITAL ENERGIES
----------------

  NO   OCC          E(Eh)            E(eV)
   0   2.0000     -19.230190      -523.2801
   1   2.0000     -10.309607      -280.5387
   2   2.0000      -1.130949       -30.7747
   3   2.0000      -0.798486       -21.7279
   4   2.0000      -0.603395       -16.4192
   5   2.0000      -0.552303       -15.0289
   6   2.0000      -0.521228       -14.1833
   7   2.0000      -0.432821       -11.7776
   8   2.0000      -0.377436       -10.2705
   9   0.0000       0.094456         2.5703
  10   0.0000       0.122326         3.3287
  11   0.0000       0.154628         4.2076
  12   0.0000       0.189021         5.1435
  13   0.0000       0.200288         5.4501

MULLIKEN ATOMIC CHARGES
-----------------------
   0 C :   -0.000035
   1 O :    0.000845
   2 H :   -0.006151
   3 H :   -0.000362
   4 H :   -0.000127
   5 H :    0.000014
   6 C :   -0.166540
   7 O :   -0.464683
   8 H :    0.306099
   9 H :    0.115747
  10 H :    0.104045
  11 H :    0.111148
Sum of atomic charges:    0.0000000

LOEWDIN ATOMIC CHARGES
----------------------
   0 C :   -0.002863
   1 O :   -0.003996
   2 H :   -0.021533
   3 H :   -0.000346
   4 H :   -0.000705
   5 H :   -0.000014
   6 C :   -0.365726
   7 O :   -0.072203
   8 H :    0.167578
   9 H :    0.109690
  10 H :    0.096552
  11 H :    0.093565

  Mayer bond orders larger than 0.1
B(  6-C ,  7-O ) :   0.9958 B(  6-C ,  9-H ) :   0.9816 B(  6-C , 10-H ) :   0.9713
B(  6-C , 11-H ) :   0.9757 B(  7-O ,  8-H ) :   0.9026

Dispersion correction           -0.000239182
FINAL SINGLE POINT ENERGY      -115.735484231044

DIPOLE MOMENT
-------------
                                X             Y             Z
Electronic contribution:     -0.82791       0.56492       1.47269
Nuclear contribution   :      1.19244      -0.18824      -1.93453
                        -----------------------------------------
Total Dipole Moment    :      0.36452       0.37668      -0.46184
                        -----------------------------------------
Magnitude (a.u.)       :      0.69861
Magnitude (Debye)      :      1.77574

Rotational constants in cm-1:     4.335390     0.816196     0.796516
Rotational constants in MHz : 129971.722899 24468.931021 23878.942527

                             ****ORCA TERMINATED NORMALLY****
TOTAL RUN TIME: 0 days 0 hours 1 minutes 7 seconds 670 msec
