                         Program Version 4.1.2  - RELEASE  -
|  1> #Run DFT-D3 single point of the dimer
|  2> ! wB97X-D3 def2-TZVP TIGHTSCF CHELPG PMODEL PAL8
|  3>
|  4> %base "16-181_DFT_AB"
|  5>
|  6> %scf
|  7> MaxIter 1000
|  8> end
|  9>
| 10> * xyz 0 1
| 11>   C                      10.355604            7.318238             -2.186516
| 12>   O                      9.596052             7.114368             -0.987642
| 13>   H                      8.891249             7.814339             -0.905441
| 14>   H                      11.135173            8.104721             -2.107995
| 15>   H                      10.882896            6.364339             -2.387709
| 16>   H                      9.837666             7.442704             -3.169920
| 17>   C                      7.856281             6.990472             2.461391
| 18>   O                      7.999837             7.573358             1.195961
| 19>   H                      8.965035             7.663970             0.982130
| 20>   H                      8.441369             7.390414             3.360844
| 21>   H                      6.849756             6.852662             2.832672
| 22>   H                      8.225145             5.967884             2.572257
| 23> *
| 24>
| 25> #Run DFT-D3 single point of the molecule with dimer basis set
| 26> $new_job
| 27> %base "16-181_DFT_A"
| 28> ! wB97X-D3 def2-TZVP TIGHTSCF CHELPG PMODEL
| 29>
| 30> %scf
| 31> MaxIter 1000
| 32> end
| 33>
| 34> * xyz 0 1
| 35>   C                      10.355604            7.318238             -2.186516
| 36>   O                      9.596052             7.114368             -0.987642
| 37>   H                      8.891249             7.814339             -0.905441
| 38>   H                      11.135173            8.104721             -2.107995
| 39>   H                      10.882896            6.364339             -2.387709
| 40>   H                      9.837666             7.442704             -3.169920
| 41>   C                    : 7.856281             6.990472             2.461391
| 42>   O                    : 7.999837             7.573358             1.195961
| 43>   H                    : 8.965035             7.663970             0.982130
| 44>   H                    : 8.441369             7.390414             3.360844
| 45>   H                    : 6.849756             6.852662             2.832672
| 46>   H                    : 8.225145             5.967884             2.572257
| 47> *
| 48>
| 49> #Run DFT-D3 single point of the particle with dimer basis set
| 50> $new_job
| 51> %base "16-181_DFT_B"
| 52> ! wB97X-D3 def2-TZVP TIGHTSCF CHELPG PMODEL
| 53>
| 54> %scf
| 55> MaxIter 1000
| 56> end
| 57>
| 58> * xyz 0 1
| 59>   C                    : 10.355604            7.318238             -2.186516
| 60>   O                    : 9.596052             7.114368             -0.987642
| 61>   H                    : 8.891249             7.814339             -0.905441
| 62>   H                    : 11.135173            8.104721             -2.107995
| 63>   H                    : 10.882896            6.364339             -2.387709
| 64>   H                    : 9.837666             7.442704             -3.169920
| 65>   C                      7.856281             6.990472             2.461391
| 66>   O                      7.999837             7.573358             1.195961
| 67>   H                      8.965035             7.663970             0.982130
| 68>   H                      8.441369             7.390414             3.360844
| 69>   H                      6.849756             6.852662             2.832672
| 70>   H                      8.225145             5.967884             2.572257
| 71> *
| 72>
| 73>                          ****END OF INPUT****
 Total Charge           Charge          ....    0
 Multiplicity           Mult            ....    1
 Number of Electrons    NEL             ....   36
Dispersion correction           -0.001361802
FINAL SINGLE POINT ENERGY      -231.458887188925
Dispersion correction           -0.000300858
FINAL SINGLE POINT ENERGY      -115.731309668678

CARTESIAN COORDINATES (ANGSTROEM)
---------------------------------
  C     10.355604    7.318238   -2.186516
  O      9.596052    7.114368   -0.987642
  H      8.891249    7.814339   -0.905441
  H     11.135173    8.104721   -2.107995
  H     10.882896    6.364339   -2.387709
  H      9.837666    7.442704   -3.169920
  C      7.856281    6.990472    2.461391
  O      7.999837    7.573358    1.195961
  H      8.965035    7.663970    0.982130
  H      8.441369    7.390414    3.360844
  H      6.849756    6.852662    2.832672
  H      8.225145    5.967884    2.572257

 Multiplicity           Mult            ....    1
 Number of Electrons    NEL             ....   18
 Basis Dimension        Dim             ....  172

ORBITAL ENERGIES
----------------

  NO   OCC          E(Eh)            E(eV)
   0   2.0000     -19.244577      -523.6716
   1   2.0000     -10.316583      -280.7285
   2   2.0000      -1.139025       -30.9944
   3   2.0000      -0.797910       -21.7122
   4   2.0000      -0.621232       -16.9046
   5   2.0000      -0.534760       -14.5516
   6   2.0000      -0.521032       -14.1780
   7   2.0000      -0.437335       -11.9005
   8   2.0000      -0.371041       -10.0965
   9   0.0000       0.080221         2.1829
  10   0.0000       0.119836         3.2609
  11   0.0000       0.141095         3.8394
  12   0.0000       0.193031         5.2526
  13   0.0000       0.195479         5.3192

MULLIKEN ATOMIC CHARGES
-----------------------
   0 C :   -0.002028
   1 O :   -0.005196
   2 H :   -0.003497
   3 H :    0.000054
   4 H :    0.000088
   5 H :    0.000042
   6 C :   -0.185553
   7 O :   -0.451316
   8 H :    0.326507
   9 H :    0.094974
  10 H :    0.128209
  11 H :    0.097717
Sum of atomic charges:    0.0000000

LOEWDIN ATOMIC CHARGES
----------------------
   0 C :   -0.000957
   1 O :   -0.016989
   2 H :   -0.013469
   3 H :   -0.000030
   4 H :   -0.000027
   5 H :   -0.000018
   6 C :   -0.421296
   7 O :   -0.052170
   8 H :    0.203650
   9 H :    0.101876
  10 H :    0.107020
  11 H :    0.092412

  Mayer bond orders larger than 0.1
B(  6-C ,  7-O ) :   1.0186 B(  6-C ,  9-H ) :   0.9727 B(  6-C , 10-H ) :   0.9744
B(  6-C , 11-H ) :   0.9700 B(  7-O ,  8-H ) :   0.8841

Dispersion correction           -0.000288983
FINAL SINGLE POINT ENERGY      -115.724962162209

DIPOLE MOMENT
-------------
                                X             Y             Z
Electronic contribution:     -0.06077       0.96676      -1.93343
Nuclear contribution   :      0.59778      -1.15916       2.28171
                        -----------------------------------------
Total Dipole Moment    :      0.53701      -0.19240       0.34829
                        -----------------------------------------
Magnitude (a.u.)       :      0.66836
Magnitude (Debye)      :      1.69883

Rotational constants in cm-1:     4.577269     0.814102     0.775857
Rotational constants in MHz : 137223.077991 24406.172711 23259.604796

                             ****ORCA TERMINATED NORMALLY****
TOTAL RUN TIME: 0 days 0 hours 1 minutes 9 seconds 195 msec
