                         Program Version 4.1.2  - RELEASE  -
|  1> #Run DFT-D3 single point of the dimer
|  2> ! wB97X-D3 def2-TZVP TIGHTSCF CHELPG PMODEL PAL8
|  3>
|  4> %base "14-86_DFT_AB"
|  5>
|  6> %scf
|  7> MaxIter 1000
|  8> end
|  9>
| 10> * xyz 0 1
| 11>   C                      -4.858137            8.794378             -2.162719
| 12>   O                      -5.057893            9.023676             -0.762485
| 13>   H                      -4.277961            8.800261             -0.211867
| 14>   H                      -5.459045            7.976104             -2.597022
| 15>   H                      -5.076426            9.725379             -2.688449
| 16>   H                      -3.806476            8.543483             -2.442663
| 17>   C                      -2.993871            4.808309             1.070892
| 18>   O                      -3.326245            3.552007             0.491658
| 19>   H                      -4.295734            3.647251             0.335591
| 20>   H                      -3.327835            5.618493             0.369833
| 21>   H                      -3.499959            4.935140             1.987450
| 22>   H                      -1.906721            4.852058             1.179640
| 23> *
| 24>
| 25> #Run DFT-D3 single point of the molecule with dimer basis set
| 26> $new_job
| 27> %base "14-86_DFT_A"
| 28> ! wB97X-D3 def2-TZVP TIGHTSCF CHELPG PMODEL
| 29>
| 30> %scf
| 31> MaxIter 1000
| 32> end
| 33>
| 34> * xyz 0 1
| 35>   C                      -4.858137            8.794378             -2.162719
| 36>   O                      -5.057893            9.023676             -0.762485
| 37>   H                      -4.277961            8.800261             -0.211867
| 38>   H                      -5.459045            7.976104             -2.597022
| 39>   H                      -5.076426            9.725379             -2.688449
| 40>   H                      -3.806476            8.543483             -2.442663
| 41>   C                    : -2.993871            4.808309             1.070892
| 42>   O                    : -3.326245            3.552007             0.491658
| 43>   H                    : -4.295734            3.647251             0.335591
| 44>   H                    : -3.327835            5.618493             0.369833
| 45>   H                    : -3.499959            4.935140             1.987450
| 46>   H                    : -1.906721            4.852058             1.179640
| 47> *
| 48>
| 49> #Run DFT-D3 single point of the particle with dimer basis set
| 50> $new_job
| 51> %base "14-86_DFT_B"
| 52> ! wB97X-D3 def2-TZVP TIGHTSCF CHELPG PMODEL
| 53>
| 54> %scf
| 55> MaxIter 1000
| 56> end
| 57>
| 58> * xyz 0 1
| 59>   C                    : -4.858137            8.794378             -2.162719
| 60>   O                    : -5.057893            9.023676             -0.762485
| 61>   H                    : -4.277961            8.800261             -0.211867
| 62>   H                    : -5.459045            7.976104             -2.597022
| 63>   H                    : -5.076426            9.725379             -2.688449
| 64>   H                    : -3.806476            8.543483             -2.442663
| 65>   C                      -2.993871            4.808309             1.070892
| 66>   O                      -3.326245            3.552007             0.491658
| 67>   H                      -4.295734            3.647251             0.335591
| 68>   H                      -3.327835            5.618493             0.369833
| 69>   H                      -3.499959            4.935140             1.987450
| 70>   H                      -1.906721            4.852058             1.179640
| 71> *
| 72>
| 73>                          ****END OF INPUT****
 Total Charge           Charge          ....    0
 Multiplicity           Mult            ....    1
 Number of Electrons    NEL             ....   36
Dispersion correction           -0.000822076
FINAL SINGLE POINT ENERGY      -231.466755548243
Dispersion correction           -0.000282954
FINAL SINGLE POINT ENERGY      -115.732874169585

CARTESIAN COORDINATES (ANGSTROEM)
---------------------------------
  C     -4.858137    8.794378   -2.162719
  O     -5.057893    9.023676   -0.762485
  H     -4.277961    8.800261   -0.211867
  H     -5.459045    7.976104   -2.597022
  H     -5.076426    9.725379   -2.688449
  H     -3.806476    8.543483   -2.442663
  C     -2.993871    4.808309    1.070892
  O     -3.326245    3.552007    0.491658
  H     -4.295734    3.647251    0.335591
  H     -3.327835    5.618493    0.369833
  H     -3.499959    4.935140    1.987450
  H     -1.906721    4.852058    1.179640

 Multiplicity           Mult            ....    1
 Number of Electrons    NEL             ....   18
 Basis Dimension        Dim             ....  172

ORBITAL ENERGIES
----------------

  NO   OCC          E(Eh)            E(eV)
   0   2.0000     -19.231145      -523.3061
   1   2.0000     -10.311755      -280.5971
   2   2.0000      -1.131572       -30.7916
   3   2.0000      -0.790227       -21.5032
   4   2.0000      -0.606367       -16.5001
   5   2.0000      -0.544493       -14.8164
   6   2.0000      -0.522566       -14.2197
   7   2.0000      -0.440717       -11.9925
   8   2.0000      -0.371566       -10.1108
   9   0.0000       0.079098         2.1524
  10   0.0000       0.113129         3.0784
  11   0.0000       0.145693         3.9645
  12   0.0000       0.173308         4.7160
  13   0.0000       0.186236         5.0677

MULLIKEN ATOMIC CHARGES
-----------------------
   0 C :    0.000069
   1 O :    0.000023
   2 H :   -0.000377
   3 H :   -0.000017
   4 H :   -0.000009
   5 H :   -0.000071
   6 C :   -0.170596
   7 O :   -0.470582
   8 H :    0.312772
   9 H :    0.100156
  10 H :    0.108146
  11 H :    0.120486
Sum of atomic charges:    0.0000000

LOEWDIN ATOMIC CHARGES
----------------------
   0 C :   -0.000174
   1 O :   -0.000037
   2 H :   -0.000530
   3 H :   -0.000010
   4 H :   -0.000003
   5 H :   -0.000036
   6 C :   -0.380325
   7 O :   -0.098005
   8 H :    0.184901
   9 H :    0.100008
  10 H :    0.085447
  11 H :    0.108764

  Mayer bond orders larger than 0.1
B(  6-C ,  7-O ) :   0.9945 B(  6-C ,  9-H ) :   0.9823 B(  6-C , 10-H ) :   0.9738
B(  6-C , 11-H ) :   0.9723 B(  7-O ,  8-H ) :   0.9008

Dispersion correction           -0.000211750
FINAL SINGLE POINT ENERGY      -115.733469770642

DIPOLE MOMENT
-------------
                                X             Y             Z
Electronic contribution:     -0.21091      -1.65001      -0.59972
Nuclear contribution   :     -0.24421       2.19695       0.74414
                        -----------------------------------------
Total Dipole Moment    :     -0.45512       0.54694       0.14442
                        -----------------------------------------
Magnitude (a.u.)       :      0.72604
Magnitude (Debye)      :      1.84545

Rotational constants in cm-1:     4.127631     0.840920     0.803055
Rotational constants in MHz : 123743.264455 25210.133311 24074.977955

                             ****ORCA TERMINATED NORMALLY****
TOTAL RUN TIME: 0 days 0 hours 1 minutes 10 seconds 169 msec
