                         Program Version 4.1.2  - RELEASE  -
|  1> #Run DFT-D3 single point of the dimer
|  2> ! wB97X-D3 def2-TZVP TIGHTSCF CHELPG PMODEL PAL8
|  3>
|  4> %base "21-155_DFT_AB"
|  5>
|  6> %scf
|  7> MaxIter 1000
|  8> end
|  9>
| 10> * xyz 0 1
| 11>   C                      6.521235             -10.473203           -2.558362
| 12>   O                      7.817867             -9.902281            -2.639423
| 13>   H                      7.723384             -8.939568            -2.723572
| 14>   H                      6.424041             -11.449859           -2.075751
| 15>   H                      5.769644             -9.834148            -2.145071
| 16>   H                      6.081220             -10.595940           -3.545507
| 17>   C                      6.810272             -5.639102            -2.893015
| 18>   O                      7.400597             -6.879874            -2.672565
| 19>   H                      8.240190             -6.888730            -2.212595
| 20>   H                      6.553186             -5.246679            -1.891201
| 21>   H                      7.419295             -4.864427            -3.395195
| 22>   H                      5.896662             -5.592998            -3.515592
| 23> *
| 24>
| 25> #Run DFT-D3 single point of the molecule with dimer basis set
| 26> $new_job
| 27> %base "21-155_DFT_A"
| 28> ! wB97X-D3 def2-TZVP TIGHTSCF CHELPG PMODEL
| 29>
| 30> %scf
| 31> MaxIter 1000
| 32> end
| 33>
| 34> * xyz 0 1
| 35>   C                      6.521235             -10.473203           -2.558362
| 36>   O                      7.817867             -9.902281            -2.639423
| 37>   H                      7.723384             -8.939568            -2.723572
| 38>   H                      6.424041             -11.449859           -2.075751
| 39>   H                      5.769644             -9.834148            -2.145071
| 40>   H                      6.081220             -10.595940           -3.545507
| 41>   C                    : 6.810272             -5.639102            -2.893015
| 42>   O                    : 7.400597             -6.879874            -2.672565
| 43>   H                    : 8.240190             -6.888730            -2.212595
| 44>   H                    : 6.553186             -5.246679            -1.891201
| 45>   H                    : 7.419295             -4.864427            -3.395195
| 46>   H                    : 5.896662             -5.592998            -3.515592
| 47> *
| 48>
| 49> #Run DFT-D3 single point of the particle with dimer basis set
| 50> $new_job
| 51> %base "21-155_DFT_B"
| 52> ! wB97X-D3 def2-TZVP TIGHTSCF CHELPG PMODEL
| 53>
| 54> %scf
| 55> MaxIter 1000
| 56> end
| 57>
| 58> * xyz 0 1
| 59>   C                    : 6.521235             -10.473203           -2.558362
| 60>   O                    : 7.817867             -9.902281            -2.639423
| 61>   H                    : 7.723384             -8.939568            -2.723572
| 62>   H                    : 6.424041             -11.449859           -2.075751
| 63>   H                    : 5.769644             -9.834148            -2.145071
| 64>   H                    : 6.081220             -10.595940           -3.545507
| 65>   C                      6.810272             -5.639102            -2.893015
| 66>   O                      7.400597             -6.879874            -2.672565
| 67>   H                      8.240190             -6.888730            -2.212595
| 68>   H                      6.553186             -5.246679            -1.891201
| 69>   H                      7.419295             -4.864427            -3.395195
| 70>   H                      5.896662             -5.592998            -3.515592
| 71> *
| 72>
| 73>                          ****END OF INPUT****
 Total Charge           Charge          ....    0
 Multiplicity           Mult            ....    1
 Number of Electrons    NEL             ....   36
Dispersion correction           -0.001486281
FINAL SINGLE POINT ENERGY      -231.465416972523
Dispersion correction           -0.000254324
FINAL SINGLE POINT ENERGY      -115.730311373743

CARTESIAN COORDINATES (ANGSTROEM)
---------------------------------
  C      6.521235  -10.473203   -2.558362
  O      7.817867   -9.902281   -2.639423
  H      7.723384   -8.939568   -2.723572
  H      6.424041  -11.449859   -2.075751
  H      5.769644   -9.834148   -2.145071
  H      6.081220  -10.595940   -3.545507
  C      6.810272   -5.639102   -2.893015
  O      7.400597   -6.879874   -2.672565
  H      8.240190   -6.888730   -2.212595
  H      6.553186   -5.246679   -1.891201
  H      7.419295   -4.864427   -3.395195
  H      5.896662   -5.592998   -3.515592

 Multiplicity           Mult            ....    1
 Number of Electrons    NEL             ....   18
 Basis Dimension        Dim             ....  172

ORBITAL ENERGIES
----------------

  NO   OCC          E(Eh)            E(eV)
   0   2.0000     -19.229865      -523.2712
   1   2.0000     -10.317348      -280.7493
   2   2.0000      -1.139644       -31.0113
   3   2.0000      -0.798908       -21.7394
   4   2.0000      -0.620424       -16.8826
   5   2.0000      -0.545516       -14.8442
   6   2.0000      -0.527249       -14.3472
   7   2.0000      -0.417965       -11.3734
   8   2.0000      -0.370857       -10.0915
   9   0.0000       0.098833         2.6894
  10   0.0000       0.123737         3.3671
  11   0.0000       0.146744         3.9931
  12   0.0000       0.196596         5.3496
  13   0.0000       0.199582         5.4309

MULLIKEN ATOMIC CHARGES
-----------------------
   0 C :    0.003893
   1 O :    0.000648
   2 H :   -0.012201
   3 H :   -0.000131
   4 H :   -0.003180
   5 H :   -0.000550
   6 C :   -0.151943
   7 O :   -0.477090
   8 H :    0.326576
   9 H :    0.094620
  10 H :    0.096603
  11 H :    0.122756
Sum of atomic charges:   -0.0000000

LOEWDIN ATOMIC CHARGES
----------------------
   0 C :   -0.002620
   1 O :   -0.002526
   2 H :   -0.028352
   3 H :   -0.000025
   4 H :   -0.001151
   5 H :   -0.000069
   6 C :   -0.405754
   7 O :   -0.036931
   8 H :    0.173352
   9 H :    0.097180
  10 H :    0.094737
  11 H :    0.112157

  Mayer bond orders larger than 0.1
B(  6-C ,  7-O ) :   0.9919 B(  6-C ,  9-H ) :   0.9883 B(  6-C , 10-H ) :   0.9675
B(  6-C , 11-H ) :   0.9699 B(  7-O ,  8-H ) :   0.8829

Dispersion correction           -0.000265913
FINAL SINGLE POINT ENERGY      -115.728620567356

DIPOLE MOMENT
-------------
                                X             Y             Z
Electronic contribution:      0.70900      -1.78072       0.15746
Nuclear contribution   :     -0.39010       2.28588       0.04550
                        -----------------------------------------
Total Dipole Moment    :      0.31890       0.50517       0.20296
                        -----------------------------------------
Magnitude (a.u.)       :      0.63094
Magnitude (Debye)      :      1.60373

Rotational constants in cm-1:     4.544095     0.823687     0.802083
Rotational constants in MHz : 136228.529927 24693.500728 24045.828987

                             ****ORCA TERMINATED NORMALLY****
TOTAL RUN TIME: 0 days 0 hours 1 minutes 3 seconds 342 msec
