                         Program Version 4.1.2  - RELEASE  -
|  1> #Run DFT-D3 single point of the dimer
|  2> ! wB97X-D3 def2-TZVP TIGHTSCF CHELPG PMODEL PAL8
|  3>
|  4> %base "8-26_DFT_AB"
|  5>
|  6> %scf
|  7> MaxIter 1000
|  8> end
|  9>
| 10> * xyz 0 1
| 11>   C                      1.242681             -1.490844            -1.242399
| 12>   O                      2.017750             -2.223303            -0.392427
| 13>   H                      2.854270             -2.385998            -0.915143
| 14>   H                      0.235646             -1.382705            -0.890573
| 15>   H                      1.563453             -0.460555            -1.422829
| 16>   H                      1.015853             -1.921014            -2.215583
| 17>   C                      -1.523092            -3.085054            -4.626806
| 18>   O                      -0.408437            -2.272487            -4.951602
| 19>   H                      -0.333065            -2.187968            -5.897498
| 20>   H                      -1.220030            -4.200989            -4.574410
| 21>   H                      -1.929081            -2.720365            -3.656074
| 22>   H                      -2.337389            -2.885458            -5.353517
| 23> *
| 24>
| 25> #Run DFT-D3 single point of the molecule with dimer basis set
| 26> $new_job
| 27> %base "8-26_DFT_A"
| 28> ! wB97X-D3 def2-TZVP TIGHTSCF CHELPG PMODEL
| 29>
| 30> %scf
| 31> MaxIter 1000
| 32> end
| 33>
| 34> * xyz 0 1
| 35>   C                      1.242681             -1.490844            -1.242399
| 36>   O                      2.017750             -2.223303            -0.392427
| 37>   H                      2.854270             -2.385998            -0.915143
| 38>   H                      0.235646             -1.382705            -0.890573
| 39>   H                      1.563453             -0.460555            -1.422829
| 40>   H                      1.015853             -1.921014            -2.215583
| 41>   C                    : -1.523092            -3.085054            -4.626806
| 42>   O                    : -0.408437            -2.272487            -4.951602
| 43>   H                    : -0.333065            -2.187968            -5.897498
| 44>   H                    : -1.220030            -4.200989            -4.574410
| 45>   H                    : -1.929081            -2.720365            -3.656074
| 46>   H                    : -2.337389            -2.885458            -5.353517
| 47> *
| 48>
| 49> #Run DFT-D3 single point of the particle with dimer basis set
| 50> $new_job
| 51> %base "8-26_DFT_B"
| 52> ! wB97X-D3 def2-TZVP TIGHTSCF CHELPG PMODEL
| 53>
| 54> %scf
| 55> MaxIter 1000
| 56> end
| 57>
| 58> * xyz 0 1
| 59>   C                    : 1.242681             -1.490844            -1.242399
| 60>   O                    : 2.017750             -2.223303            -0.392427
| 61>   H                    : 2.854270             -2.385998            -0.915143
| 62>   H                    : 0.235646             -1.382705            -0.890573
| 63>   H                    : 1.563453             -0.460555            -1.422829
| 64>   H                    : 1.015853             -1.921014            -2.215583
| 65>   C                      -1.523092            -3.085054            -4.626806
| 66>   O                      -0.408437            -2.272487            -4.951602
| 67>   H                      -0.333065            -2.187968            -5.897498
| 68>   H                      -1.220030            -4.200989            -4.574410
| 69>   H                      -1.929081            -2.720365            -3.656074
| 70>   H                      -2.337389            -2.885458            -5.353517
| 71> *
| 72>
| 73>                          ****END OF INPUT****
 Total Charge           Charge          ....    0
 Multiplicity           Mult            ....    1
 Number of Electrons    NEL             ....   36
Dispersion correction           -0.001148783
FINAL SINGLE POINT ENERGY      -231.464287644044
Dispersion correction           -0.000235095
FINAL SINGLE POINT ENERGY      -115.729714316590

CARTESIAN COORDINATES (ANGSTROEM)
---------------------------------
  C      1.242681   -1.490844   -1.242399
  O      2.017750   -2.223303   -0.392427
  H      2.854270   -2.385998   -0.915143
  H      0.235646   -1.382705   -0.890573
  H      1.563453   -0.460555   -1.422829
  H      1.015853   -1.921014   -2.215583
  C     -1.523092   -3.085054   -4.626806
  O     -0.408437   -2.272487   -4.951602
  H     -0.333065   -2.187968   -5.897498
  H     -1.220030   -4.200989   -4.574410
  H     -1.929081   -2.720365   -3.656074
  H     -2.337389   -2.885458   -5.353517

 Multiplicity           Mult            ....    1
 Number of Electrons    NEL             ....   18
 Basis Dimension        Dim             ....  172

ORBITAL ENERGIES
----------------

  NO   OCC          E(Eh)            E(eV)
   0   2.0000     -19.227760      -523.2140
   1   2.0000     -10.324379      -280.9406
   2   2.0000      -1.135511       -30.8988
   3   2.0000      -0.789204       -21.4753
   4   2.0000      -0.607784       -16.5386
   5   2.0000      -0.541194       -14.7266
   6   2.0000      -0.522793       -14.2259
   7   2.0000      -0.426661       -11.6100
   8   2.0000      -0.373784       -10.1712
   9   0.0000       0.095063         2.5868
  10   0.0000       0.117200         3.1892
  11   0.0000       0.150741         4.1019
  12   0.0000       0.169770         4.6197
  13   0.0000       0.193716         5.2713

MULLIKEN ATOMIC CHARGES
-----------------------
   0 C :    0.001228
   1 O :   -0.000006
   2 H :   -0.000010
   3 H :   -0.000143
   4 H :   -0.000031
   5 H :   -0.004367
   6 C :   -0.164974
   7 O :   -0.471554
   8 H :    0.311266
   9 H :    0.103752
  10 H :    0.117923
  11 H :    0.106916
Sum of atomic charges:   -0.0000000

LOEWDIN ATOMIC CHARGES
----------------------
   0 C :   -0.000792
   1 O :   -0.000013
   2 H :   -0.000001
   3 H :   -0.000060
   4 H :   -0.000019
   5 H :   -0.002767
   6 C :   -0.392694
   7 O :   -0.079173
   8 H :    0.161433
   9 H :    0.106360
  10 H :    0.109477
  11 H :    0.098249

  Mayer bond orders larger than 0.1
B(  6-C ,  7-O ) :   0.9945 B(  6-C ,  9-H ) :   0.9676 B(  6-C , 10-H ) :   0.9739
B(  6-C , 11-H ) :   0.9780 B(  7-O ,  8-H ) :   0.9011

Dispersion correction           -0.000255312
FINAL SINGLE POINT ENERGY      -115.733022634148

DIPOLE MOMENT
-------------
                                X             Y             Z
Electronic contribution:      1.44240       1.00489      -0.29983
Nuclear contribution   :     -1.85676      -1.23341      -0.19238
                        -----------------------------------------
Total Dipole Moment    :     -0.41436      -0.22852      -0.49221
                        -----------------------------------------
Magnitude (a.u.)       :      0.68278
Magnitude (Debye)      :      1.73548

Rotational constants in cm-1:     4.053328     0.819540     0.803750
Rotational constants in MHz : 121515.723952 24569.189414 24095.807513

                             ****ORCA TERMINATED NORMALLY****
TOTAL RUN TIME: 0 days 0 hours 0 minutes 41 seconds 778 msec
