                         Program Version 4.1.2  - RELEASE  -
|  1> #Run DFT-D3 single point of the dimer
|  2> ! wB97X-D3 def2-TZVP TIGHTSCF CHELPG PMODEL PAL8
|  3>
|  4> %base "11-118_DFT_AB"
|  5>
|  6> %scf
|  7> MaxIter 1000
|  8> end
|  9>
| 10> * xyz 0 1
| 11>   C                      9.746196             0.127752             0.272165
| 12>   O                      9.036215             1.286193             0.694994
| 13>   H                      9.106927             1.857356             -0.091271
| 14>   H                      9.334585             -0.309086            -0.601121
| 15>   H                      10.778810            0.400009             -0.013756
| 16>   H                      9.754853             -0.603531            1.099498
| 17>   C                      10.141218            -4.670858            -0.826136
| 18>   O                      9.963728             -3.332241            -0.613879
| 19>   H                      10.744658            -3.148241            -0.039724
| 20>   H                      10.405545            -5.269680            0.082664
| 21>   H                      9.238099             -5.122347            -1.263982
| 22>   H                      10.917957            -4.849520            -1.561856
| 23> *
| 24>
| 25> #Run DFT-D3 single point of the molecule with dimer basis set
| 26> $new_job
| 27> %base "11-118_DFT_A"
| 28> ! wB97X-D3 def2-TZVP TIGHTSCF CHELPG PMODEL
| 29>
| 30> %scf
| 31> MaxIter 1000
| 32> end
| 33>
| 34> * xyz 0 1
| 35>   C                      9.746196             0.127752             0.272165
| 36>   O                      9.036215             1.286193             0.694994
| 37>   H                      9.106927             1.857356             -0.091271
| 38>   H                      9.334585             -0.309086            -0.601121
| 39>   H                      10.778810            0.400009             -0.013756
| 40>   H                      9.754853             -0.603531            1.099498
| 41>   C                    : 10.141218            -4.670858            -0.826136
| 42>   O                    : 9.963728             -3.332241            -0.613879
| 43>   H                    : 10.744658            -3.148241            -0.039724
| 44>   H                    : 10.405545            -5.269680            0.082664
| 45>   H                    : 9.238099             -5.122347            -1.263982
| 46>   H                    : 10.917957            -4.849520            -1.561856
| 47> *
| 48>
| 49> #Run DFT-D3 single point of the particle with dimer basis set
| 50> $new_job
| 51> %base "11-118_DFT_B"
| 52> ! wB97X-D3 def2-TZVP TIGHTSCF CHELPG PMODEL
| 53>
| 54> %scf
| 55> MaxIter 1000
| 56> end
| 57>
| 58> * xyz 0 1
| 59>   C                    : 9.746196             0.127752             0.272165
| 60>   O                    : 9.036215             1.286193             0.694994
| 61>   H                    : 9.106927             1.857356             -0.091271
| 62>   H                    : 9.334585             -0.309086            -0.601121
| 63>   H                    : 10.778810            0.400009             -0.013756
| 64>   H                    : 9.754853             -0.603531            1.099498
| 65>   C                      10.141218            -4.670858            -0.826136
| 66>   O                      9.963728             -3.332241            -0.613879
| 67>   H                      10.744658            -3.148241            -0.039724
| 68>   H                      10.405545            -5.269680            0.082664
| 69>   H                      9.238099             -5.122347            -1.263982
| 70>   H                      10.917957            -4.849520            -1.561856
| 71> *
| 72>
| 73>                          ****END OF INPUT****
 Total Charge           Charge          ....    0
 Multiplicity           Mult            ....    1
 Number of Electrons    NEL             ....   36
Dispersion correction           -0.001241699
FINAL SINGLE POINT ENERGY      -231.466897940648
Dispersion correction           -0.000218739
FINAL SINGLE POINT ENERGY      -115.734285962943

CARTESIAN COORDINATES (ANGSTROEM)
---------------------------------
  C      9.746196    0.127752    0.272165
  O      9.036215    1.286193    0.694994
  H      9.106927    1.857356   -0.091271
  H      9.334585   -0.309086   -0.601121
  H     10.778810    0.400009   -0.013756
  H      9.754853   -0.603531    1.099498
  C     10.141218   -4.670858   -0.826136
  O      9.963728   -3.332241   -0.613879
  H     10.744658   -3.148241   -0.039724
  H     10.405545   -5.269680    0.082664
  H      9.238099   -5.122347   -1.263982
  H     10.917957   -4.849520   -1.561856

 Multiplicity           Mult            ....    1
 Number of Electrons    NEL             ....   18
 Basis Dimension        Dim             ....  172

ORBITAL ENERGIES
----------------

  NO   OCC          E(Eh)            E(eV)
   0   2.0000     -19.237722      -523.4850
   1   2.0000     -10.311119      -280.5798
   2   2.0000      -1.154946       -31.4277
   3   2.0000      -0.786778       -21.4093
   4   2.0000      -0.617878       -16.8133
   5   2.0000      -0.546546       -14.8723
   6   2.0000      -0.532778       -14.4976
   7   2.0000      -0.437178       -11.8962
   8   2.0000      -0.371716       -10.1149
   9   0.0000       0.087703         2.3865
  10   0.0000       0.117413         3.1950
  11   0.0000       0.152534         4.1507
  12   0.0000       0.189869         5.1666
  13   0.0000       0.197109         5.3636

MULLIKEN ATOMIC CHARGES
-----------------------
   0 C :    0.002034
   1 O :   -0.000044
   2 H :   -0.000014
   3 H :   -0.003160
   4 H :   -0.000254
   5 H :   -0.002712
   6 C :   -0.179093
   7 O :   -0.443127
   8 H :    0.321365
   9 H :    0.095983
  10 H :    0.112148
  11 H :    0.096873
Sum of atomic charges:   -0.0000000

LOEWDIN ATOMIC CHARGES
----------------------
   0 C :   -0.004046
   1 O :   -0.000028
   2 H :   -0.000004
   3 H :   -0.002348
   4 H :   -0.000108
   5 H :   -0.001522
   6 C :   -0.438876
   7 O :   -0.044229
   8 H :    0.197282
   9 H :    0.096718
  10 H :    0.107578
  11 H :    0.089582

  Mayer bond orders larger than 0.1
B(  6-C ,  7-O ) :   1.0087 B(  6-C ,  9-H ) :   0.9754 B(  6-C , 10-H ) :   0.9760
B(  6-C , 11-H ) :   0.9767 B(  7-O ,  8-H ) :   0.8929

Dispersion correction           -0.000212073
FINAL SINGLE POINT ENERGY      -115.731550299837

DIPOLE MOMENT
-------------
                                X             Y             Z
Electronic contribution:     -0.40921       1.89673       0.23490
Nuclear contribution   :      0.93894      -2.25767       0.03142
                        -----------------------------------------
Total Dipole Moment    :      0.52973      -0.36094       0.26632
                        -----------------------------------------
Magnitude (a.u.)       :      0.69414
Magnitude (Debye)      :      1.76435

Rotational constants in cm-1:     4.203040     0.882800     0.842119
Rotational constants in MHz : 126003.954549 26465.666264 25246.107114

                             ****ORCA TERMINATED NORMALLY****
TOTAL RUN TIME: 0 days 0 hours 1 minutes 1 seconds 806 msec
