                         Program Version 4.1.2  - RELEASE  -
|  1> #Run DFT-D3 single point of the dimer
|  2> ! wB97X-D3 def2-TZVP TIGHTSCF CHELPG PMODEL PAL8
|  3>
|  4> %base "2-27_DFT_AB"
|  5>
|  6> %scf
|  7> MaxIter 1000
|  8> end
|  9>
| 10> * xyz 0 1
| 11>   C                      3.461109             3.222378             4.105244
| 12>   O                      3.157580             2.071432             3.453058
| 13>   H                      2.370845             1.638740             3.819682
| 14>   H                      3.982423             3.051816             5.032330
| 15>   H                      4.203252             3.873688             3.594400
| 16>   H                      2.649209             3.897304             4.300673
| 17>   C                      3.420533             6.297204             5.717172
| 18>   O                      2.552240             6.255611             4.552327
| 19>   H                      3.144058             6.201157             3.813255
| 20>   H                      4.220448             5.524893             5.714721
| 21>   H                      4.002737             7.205981             5.743361
| 22>   H                      2.827530             6.360837             6.689454
| 23> *
| 24>
| 25> #Run DFT-D3 single point of the molecule with dimer basis set
| 26> $new_job
| 27> %base "2-27_DFT_A"
| 28> ! wB97X-D3 def2-TZVP TIGHTSCF CHELPG PMODEL
| 29>
| 30> %scf
| 31> MaxIter 1000
| 32> end
| 33>
| 34> * xyz 0 1
| 35>   C                      3.461109             3.222378             4.105244
| 36>   O                      3.157580             2.071432             3.453058
| 37>   H                      2.370845             1.638740             3.819682
| 38>   H                      3.982423             3.051816             5.032330
| 39>   H                      4.203252             3.873688             3.594400
| 40>   H                      2.649209             3.897304             4.300673
| 41>   C                    : 3.420533             6.297204             5.717172
| 42>   O                    : 2.552240             6.255611             4.552327
| 43>   H                    : 3.144058             6.201157             3.813255
| 44>   H                    : 4.220448             5.524893             5.714721
| 45>   H                    : 4.002737             7.205981             5.743361
| 46>   H                    : 2.827530             6.360837             6.689454
| 47> *
| 48>
| 49> #Run DFT-D3 single point of the particle with dimer basis set
| 50> $new_job
| 51> %base "2-27_DFT_B"
| 52> ! wB97X-D3 def2-TZVP TIGHTSCF CHELPG PMODEL
| 53>
| 54> %scf
| 55> MaxIter 1000
| 56> end
| 57>
| 58> * xyz 0 1
| 59>   C                    : 3.461109             3.222378             4.105244
| 60>   O                    : 3.157580             2.071432             3.453058
| 61>   H                    : 2.370845             1.638740             3.819682
| 62>   H                    : 3.982423             3.051816             5.032330
| 63>   H                    : 4.203252             3.873688             3.594400
| 64>   H                    : 2.649209             3.897304             4.300673
| 65>   C                      3.420533             6.297204             5.717172
| 66>   O                      2.552240             6.255611             4.552327
| 67>   H                      3.144058             6.201157             3.813255
| 68>   H                      4.220448             5.524893             5.714721
| 69>   H                      4.002737             7.205981             5.743361
| 70>   H                      2.827530             6.360837             6.689454
| 71> *
| 72>
| 73>                          ****END OF INPUT****
 Total Charge           Charge          ....    0
 Multiplicity           Mult            ....    1
 Number of Electrons    NEL             ....   36
Dispersion correction           -0.002079971
FINAL SINGLE POINT ENERGY      -231.462524981544
Dispersion correction           -0.000243364
FINAL SINGLE POINT ENERGY      -115.730998285582

CARTESIAN COORDINATES (ANGSTROEM)
---------------------------------
  C      3.461109    3.222378    4.105244
  O      3.157580    2.071432    3.453058
  H      2.370845    1.638740    3.819682
  H      3.982423    3.051816    5.032330
  H      4.203252    3.873688    3.594400
  H      2.649209    3.897304    4.300673
  C      3.420533    6.297204    5.717172
  O      2.552240    6.255611    4.552327
  H      3.144058    6.201157    3.813255
  H      4.220448    5.524893    5.714721
  H      4.002737    7.205981    5.743361
  H      2.827530    6.360837    6.689454

 Multiplicity           Mult            ....    1
 Number of Electrons    NEL             ....   18
 Basis Dimension        Dim             ....  172

ORBITAL ENERGIES
----------------

  NO   OCC          E(Eh)            E(eV)
   0   2.0000     -19.234672      -523.4020
   1   2.0000     -10.323079      -280.9053
   2   2.0000      -1.131535       -30.7906
   3   2.0000      -0.795515       -21.6471
   4   2.0000      -0.609913       -16.5966
   5   2.0000      -0.533207       -14.5093
   6   2.0000      -0.517361       -14.0781
   7   2.0000      -0.445302       -12.1173
   8   2.0000      -0.375167       -10.2088
   9   0.0000       0.083006         2.2587
  10   0.0000       0.129481         3.5233
  11   0.0000       0.144869         3.9421
  12   0.0000       0.172962         4.7065
  13   0.0000       0.196337         5.3426

MULLIKEN ATOMIC CHARGES
-----------------------
   0 C :   -0.006800
   1 O :   -0.000054
   2 H :   -0.000046
   3 H :   -0.000102
   4 H :   -0.001511
   5 H :   -0.003908
   6 C :   -0.185595
   7 O :   -0.460791
   8 H :    0.312368
   9 H :    0.107439
  10 H :    0.113030
  11 H :    0.125971
Sum of atomic charges:   -0.0000000

LOEWDIN ATOMIC CHARGES
----------------------
   0 C :   -0.016043
   1 O :   -0.000051
   2 H :   -0.000012
   3 H :   -0.001923
   4 H :   -0.002549
   5 H :   -0.016153
   6 C :   -0.363949
   7 O :   -0.075050
   8 H :    0.161783
   9 H :    0.101655
  10 H :    0.091874
  11 H :    0.120418

  Mayer bond orders larger than 0.1
B(  6-C ,  7-O ) :   0.9853 B(  6-C ,  9-H ) :   0.9700 B(  6-C , 10-H ) :   0.9767
B(  6-C , 11-H ) :   0.9738 B(  7-O ,  8-H ) :   0.9041

Dispersion correction           -0.000260724
FINAL SINGLE POINT ENERGY      -115.730718864746

DIPOLE MOMENT
-------------
                                X             Y             Z
Electronic contribution:     -1.30114      -0.13169      -1.41687
Nuclear contribution   :      2.04075       0.16291       1.42987
                        -----------------------------------------
Total Dipole Moment    :      0.73961       0.03123       0.01300
                        -----------------------------------------
Magnitude (a.u.)       :      0.74038
Magnitude (Debye)      :      1.88189

Rotational constants in cm-1:     4.256158     0.795508     0.754441
Rotational constants in MHz : 127596.393633 23848.733321 22617.574109

                             ****ORCA TERMINATED NORMALLY****
TOTAL RUN TIME: 0 days 0 hours 5 minutes 40 seconds 842 msec
