                         Program Version 4.1.2  - RELEASE  -
|  1> #Run DFT-D3 single point of the dimer
|  2> ! wB97X-D3 def2-TZVP TIGHTSCF CHELPG PMODEL PAL8
|  3>
|  4> %base "16-137_DFT_AB"
|  5>
|  6> %scf
|  7> MaxIter 1000
|  8> end
|  9>
| 10> * xyz 0 1
| 11>   C                      -3.015513            4.657646             8.973627
| 12>   O                      -1.868843            4.290034             9.722191
| 13>   H                      -1.130121            4.887643             9.436925
| 14>   H                      -2.824309            4.660446             7.877721
| 15>   H                      -3.872396            3.998280             9.281944
| 16>   H                      -3.256881            5.665914             9.192009
| 17>   C                      -2.205781            0.892777             9.362688
| 18>   O                      -0.974230            0.410646             9.895547
| 19>   H                      -1.109702            -0.487850            10.269768
| 20>   H                      -2.145692            1.764870             8.648886
| 21>   H                      -2.821164            0.096539             8.933474
| 22>   H                      -2.902641            1.276408             10.109630
| 23> *
| 24>
| 25> #Run DFT-D3 single point of the molecule with dimer basis set
| 26> $new_job
| 27> %base "16-137_DFT_A"
| 28> ! wB97X-D3 def2-TZVP TIGHTSCF CHELPG PMODEL
| 29>
| 30> %scf
| 31> MaxIter 1000
| 32> end
| 33>
| 34> * xyz 0 1
| 35>   C                      -3.015513            4.657646             8.973627
| 36>   O                      -1.868843            4.290034             9.722191
| 37>   H                      -1.130121            4.887643             9.436925
| 38>   H                      -2.824309            4.660446             7.877721
| 39>   H                      -3.872396            3.998280             9.281944
| 40>   H                      -3.256881            5.665914             9.192009
| 41>   C                    : -2.205781            0.892777             9.362688
| 42>   O                    : -0.974230            0.410646             9.895547
| 43>   H                    : -1.109702            -0.487850            10.269768
| 44>   H                    : -2.145692            1.764870             8.648886
| 45>   H                    : -2.821164            0.096539             8.933474
| 46>   H                    : -2.902641            1.276408             10.109630
| 47> *
| 48>
| 49> #Run DFT-D3 single point of the particle with dimer basis set
| 50> $new_job
| 51> %base "16-137_DFT_B"
| 52> ! wB97X-D3 def2-TZVP TIGHTSCF CHELPG PMODEL
| 53>
| 54> %scf
| 55> MaxIter 1000
| 56> end
| 57>
| 58> * xyz 0 1
| 59>   C                    : -3.015513            4.657646             8.973627
| 60>   O                    : -1.868843            4.290034             9.722191
| 61>   H                    : -1.130121            4.887643             9.436925
| 62>   H                    : -2.824309            4.660446             7.877721
| 63>   H                    : -3.872396            3.998280             9.281944
| 64>   H                    : -3.256881            5.665914             9.192009
| 65>   C                      -2.205781            0.892777             9.362688
| 66>   O                      -0.974230            0.410646             9.895547
| 67>   H                      -1.109702            -0.487850            10.269768
| 68>   H                      -2.145692            1.764870             8.648886
| 69>   H                      -2.821164            0.096539             8.933474
| 70>   H                      -2.902641            1.276408             10.109630
| 71> *
| 72>
| 73>                          ****END OF INPUT****
 Total Charge           Charge          ....    0
 Multiplicity           Mult            ....    1
 Number of Electrons    NEL             ....   36
Dispersion correction           -0.001792174
FINAL SINGLE POINT ENERGY      -231.463370093018
Dispersion correction           -0.000231480
FINAL SINGLE POINT ENERGY      -115.733205491809

CARTESIAN COORDINATES (ANGSTROEM)
---------------------------------
  C     -3.015513    4.657646    8.973627
  O     -1.868843    4.290034    9.722191
  H     -1.130121    4.887643    9.436925
  H     -2.824309    4.660446    7.877721
  H     -3.872396    3.998280    9.281944
  H     -3.256881    5.665914    9.192009
  C     -2.205781    0.892777    9.362688
  O     -0.974230    0.410646    9.895547
  H     -1.109702   -0.487850   10.269768
  H     -2.145692    1.764870    8.648886
  H     -2.821164    0.096539    8.933474
  H     -2.902641    1.276408   10.109630

 Multiplicity           Mult            ....    1
 Number of Electrons    NEL             ....   18
 Basis Dimension        Dim             ....  172

ORBITAL ENERGIES
----------------

  NO   OCC          E(Eh)            E(eV)
   0   2.0000     -19.236217      -523.4441
   1   2.0000     -10.317900      -280.7643
   2   2.0000      -1.129410       -30.7328
   3   2.0000      -0.795439       -21.6450
   4   2.0000      -0.612932       -16.6787
   5   2.0000      -0.533288       -14.5115
   6   2.0000      -0.521870       -14.2008
   7   2.0000      -0.435614       -11.8537
   8   2.0000      -0.371175       -10.1002
   9   0.0000       0.084114         2.2888
  10   0.0000       0.112288         3.0555
  11   0.0000       0.148020         4.0278
  12   0.0000       0.169747         4.6191
  13   0.0000       0.180915         4.9230

MULLIKEN ATOMIC CHARGES
-----------------------
   0 C :   -0.001052
   1 O :    0.000204
   2 H :   -0.000077
   3 H :   -0.000245
   4 H :    0.000121
   5 H :   -0.000105
   6 C :   -0.180884
   7 O :   -0.475114
   8 H :    0.321601
   9 H :    0.124988
  10 H :    0.108385
  11 H :    0.102178
Sum of atomic charges:    0.0000000

LOEWDIN ATOMIC CHARGES
----------------------
   0 C :   -0.005305
   1 O :   -0.001992
   2 H :   -0.000145
   3 H :   -0.000429
   4 H :   -0.001168
   5 H :   -0.000055
   6 C :   -0.390318
   7 O :   -0.092307
   8 H :    0.184374
   9 H :    0.117864
  10 H :    0.095543
  11 H :    0.093939

  Mayer bond orders larger than 0.1
B(  6-C ,  7-O ) :   1.0052 B(  6-C ,  9-H ) :   0.9705 B(  6-C , 10-H ) :   0.9758
B(  6-C , 11-H ) :   0.9730 B(  7-O ,  8-H ) :   0.8905

Dispersion correction           -0.000270947
FINAL SINGLE POINT ENERGY      -115.729540624775

DIPOLE MOMENT
-------------
                                X             Y             Z
Electronic contribution:      1.83207      -0.53051       0.60986
Nuclear contribution   :     -2.42646       0.14482      -0.57566
                        -----------------------------------------
Total Dipole Moment    :     -0.59439      -0.38570       0.03420
                        -----------------------------------------
Magnitude (a.u.)       :      0.70939
Magnitude (Debye)      :      1.80312

Rotational constants in cm-1:     4.412066     0.805946     0.765825
Rotational constants in MHz : 132270.426088 24161.643135 22958.868854

                             ****ORCA TERMINATED NORMALLY****
TOTAL RUN TIME: 0 days 0 hours 1 minutes 5 seconds 786 msec
