                         Program Version 4.1.2  - RELEASE  -
|  1> #Run DFT-D3 single point of the dimer
|  2> ! wB97X-D3 def2-TZVP TIGHTSCF CHELPG PMODEL PAL8
|  3>
|  4> %base "18-120_DFT_AB"
|  5>
|  6> %scf
|  7> MaxIter 1000
|  8> end
|  9>
| 10> * xyz 0 1
| 11>   C                      -5.446868            -6.427898            4.398812
| 12>   O                      -6.637437            -7.096489            4.745750
| 13>   H                      -6.687544            -8.002790            4.433937
| 14>   H                      -5.460413            -5.329283            4.727372
| 15>   H                      -4.544172            -6.930192            4.735164
| 16>   H                      -5.335296            -6.386736            3.346718
| 17>   C                      -5.489523            -3.813304            8.215315
| 18>   O                      -6.739284            -4.407885            8.109298
| 19>   H                      -7.413917            -3.714608            8.024810
| 20>   H                      -4.976029            -3.686453            7.194270
| 21>   H                      -5.521442            -2.886207            8.754006
| 22>   H                      -4.844538            -4.540704            8.737894
| 23> *
| 24>
| 25> #Run DFT-D3 single point of the molecule with dimer basis set
| 26> $new_job
| 27> %base "18-120_DFT_A"
| 28> ! wB97X-D3 def2-TZVP TIGHTSCF CHELPG PMODEL
| 29>
| 30> %scf
| 31> MaxIter 1000
| 32> end
| 33>
| 34> * xyz 0 1
| 35>   C                      -5.446868            -6.427898            4.398812
| 36>   O                      -6.637437            -7.096489            4.745750
| 37>   H                      -6.687544            -8.002790            4.433937
| 38>   H                      -5.460413            -5.329283            4.727372
| 39>   H                      -4.544172            -6.930192            4.735164
| 40>   H                      -5.335296            -6.386736            3.346718
| 41>   C                    : -5.489523            -3.813304            8.215315
| 42>   O                    : -6.739284            -4.407885            8.109298
| 43>   H                    : -7.413917            -3.714608            8.024810
| 44>   H                    : -4.976029            -3.686453            7.194270
| 45>   H                    : -5.521442            -2.886207            8.754006
| 46>   H                    : -4.844538            -4.540704            8.737894
| 47> *
| 48>
| 49> #Run DFT-D3 single point of the particle with dimer basis set
| 50> $new_job
| 51> %base "18-120_DFT_B"
| 52> ! wB97X-D3 def2-TZVP TIGHTSCF CHELPG PMODEL
| 53>
| 54> %scf
| 55> MaxIter 1000
| 56> end
| 57>
| 58> * xyz 0 1
| 59>   C                    : -5.446868            -6.427898            4.398812
| 60>   O                    : -6.637437            -7.096489            4.745750
| 61>   H                    : -6.687544            -8.002790            4.433937
| 62>   H                    : -5.460413            -5.329283            4.727372
| 63>   H                    : -4.544172            -6.930192            4.735164
| 64>   H                    : -5.335296            -6.386736            3.346718
| 65>   C                      -5.489523            -3.813304            8.215315
| 66>   O                      -6.739284            -4.407885            8.109298
| 67>   H                      -7.413917            -3.714608            8.024810
| 68>   H                      -4.976029            -3.686453            7.194270
| 69>   H                      -5.521442            -2.886207            8.754006
| 70>   H                      -4.844538            -4.540704            8.737894
| 71> *
| 72>
| 73>                          ****END OF INPUT****
 Total Charge           Charge          ....    0
 Multiplicity           Mult            ....    1
 Number of Electrons    NEL             ....   36
Dispersion correction           -0.001107965
FINAL SINGLE POINT ENERGY      -231.464959489486
Dispersion correction           -0.000254323
FINAL SINGLE POINT ENERGY      -115.731615073262

CARTESIAN COORDINATES (ANGSTROEM)
---------------------------------
  C     -5.446868   -6.427898    4.398812
  O     -6.637437   -7.096489    4.745750
  H     -6.687544   -8.002790    4.433937
  H     -5.460413   -5.329283    4.727372
  H     -4.544172   -6.930192    4.735164
  H     -5.335296   -6.386736    3.346718
  C     -5.489523   -3.813304    8.215315
  O     -6.739284   -4.407885    8.109298
  H     -7.413917   -3.714608    8.024810
  H     -4.976029   -3.686453    7.194270
  H     -5.521442   -2.886207    8.754006
  H     -4.844538   -4.540704    8.737894

 Multiplicity           Mult            ....    1
 Number of Electrons    NEL             ....   18
 Basis Dimension        Dim             ....  172

ORBITAL ENERGIES
----------------

  NO   OCC          E(Eh)            E(eV)
   0   2.0000     -19.231489      -523.3154
   1   2.0000     -10.314819      -280.6805
   2   2.0000      -1.142724       -31.0951
   3   2.0000      -0.790599       -21.5133
   4   2.0000      -0.616483       -16.7754
   5   2.0000      -0.539689       -14.6857
   6   2.0000      -0.527966       -14.3667
   7   2.0000      -0.433442       -11.7946
   8   2.0000      -0.369289       -10.0489
   9   0.0000       0.090270         2.4564
  10   0.0000       0.116084         3.1588
  11   0.0000       0.149429         4.0662
  12   0.0000       0.173294         4.7156
  13   0.0000       0.191958         5.2234

MULLIKEN ATOMIC CHARGES
-----------------------
   0 C :   -0.000665
   1 O :   -0.000015
   2 H :    0.000004
   3 H :    0.000630
   4 H :   -0.000055
   5 H :    0.000028
   6 C :   -0.161304
   7 O :   -0.467159
   8 H :    0.315384
   9 H :    0.088571
  10 H :    0.109658
  11 H :    0.114924
Sum of atomic charges:    0.0000000

LOEWDIN ATOMIC CHARGES
----------------------
   0 C :   -0.000712
   1 O :   -0.000147
   2 H :   -0.000006
   3 H :   -0.000619
   4 H :   -0.000013
   5 H :   -0.000017
   6 C :   -0.411901
   7 O :   -0.062767
   8 H :    0.176535
   9 H :    0.100702
  10 H :    0.090181
  11 H :    0.108765

  Mayer bond orders larger than 0.1
B(  6-C ,  7-O ) :   1.0082 B(  6-C ,  9-H ) :   0.9708 B(  6-C , 10-H ) :   0.9784
B(  6-C , 11-H ) :   0.9772 B(  7-O ,  8-H ) :   0.8973

Dispersion correction           -0.000244476
FINAL SINGLE POINT ENERGY      -115.733907489183

DIPOLE MOMENT
-------------
                                X             Y             Z
Electronic contribution:     -1.65458      -0.79032      -0.04818
Nuclear contribution   :      1.67857       1.45826       0.07469
                        -----------------------------------------
Total Dipole Moment    :      0.02399       0.66795       0.02651
                        -----------------------------------------
Magnitude (a.u.)       :      0.66890
Magnitude (Debye)      :      1.70022

Rotational constants in cm-1:     4.189186     0.853071     0.822391
Rotational constants in MHz : 125588.635049 25574.432128 24654.676472

                             ****ORCA TERMINATED NORMALLY****
TOTAL RUN TIME: 0 days 0 hours 1 minutes 5 seconds 501 msec
