                         Program Version 4.1.2  - RELEASE  -
|  1> #Run DFT-D3 single point of the dimer
|  2> ! wB97X-D3 def2-TZVP TIGHTSCF CHELPG PMODEL PAL8
|  3>
|  4> %base "3-89_DFT_AB"
|  5>
|  6> %scf
|  7> MaxIter 1000
|  8> end
|  9>
| 10> * xyz 0 1
| 11>   C                      -1.179622            -0.680025            6.462159
| 12>   O                      -1.994517            0.038928             7.405688
| 13>   H                      -2.109912            0.907878             7.079844
| 14>   H                      -0.109920            -0.503745            6.727623
| 15>   H                      -1.354234            -1.756892            6.522703
| 16>   H                      -1.366128            -0.313220            5.402350
| 17>   C                      -1.061053            5.301009             11.263492
| 18>   O                      -1.295647            4.489598             10.101776
| 19>   H                      -1.351680            3.540695             10.358751
| 20>   H                      -0.103723            5.314560             11.688800
| 21>   H                      -1.275487            6.334969             11.016867
| 22>   H                      -1.821840            4.945084             11.969522
| 23> *
| 24>
| 25> #Run DFT-D3 single point of the molecule with dimer basis set
| 26> $new_job
| 27> %base "3-89_DFT_A"
| 28> ! wB97X-D3 def2-TZVP TIGHTSCF CHELPG PMODEL
| 29>
| 30> %scf
| 31> MaxIter 1000
| 32> end
| 33>
| 34> * xyz 0 1
| 35>   C                      -1.179622            -0.680025            6.462159
| 36>   O                      -1.994517            0.038928             7.405688
| 37>   H                      -2.109912            0.907878             7.079844
| 38>   H                      -0.109920            -0.503745            6.727623
| 39>   H                      -1.354234            -1.756892            6.522703
| 40>   H                      -1.366128            -0.313220            5.402350
| 41>   C                    : -1.061053            5.301009             11.263492
| 42>   O                    : -1.295647            4.489598             10.101776
| 43>   H                    : -1.351680            3.540695             10.358751
| 44>   H                    : -0.103723            5.314560             11.688800
| 45>   H                    : -1.275487            6.334969             11.016867
| 46>   H                    : -1.821840            4.945084             11.969522
| 47> *
| 48>
| 49> #Run DFT-D3 single point of the particle with dimer basis set
| 50> $new_job
| 51> %base "3-89_DFT_B"
| 52> ! wB97X-D3 def2-TZVP TIGHTSCF CHELPG PMODEL
| 53>
| 54> %scf
| 55> MaxIter 1000
| 56> end
| 57>
| 58> * xyz 0 1
| 59>   C                    : -1.179622            -0.680025            6.462159
| 60>   O                    : -1.994517            0.038928             7.405688
| 61>   H                    : -2.109912            0.907878             7.079844
| 62>   H                    : -0.109920            -0.503745            6.727623
| 63>   H                    : -1.354234            -1.756892            6.522703
| 64>   H                    : -1.366128            -0.313220            5.402350
| 65>   C                      -1.061053            5.301009             11.263492
| 66>   O                      -1.295647            4.489598             10.101776
| 67>   H                      -1.351680            3.540695             10.358751
| 68>   H                      -0.103723            5.314560             11.688800
| 69>   H                      -1.275487            6.334969             11.016867
| 70>   H                      -1.821840            4.945084             11.969522
| 71> *
| 72>
| 73>                          ****END OF INPUT****
 Total Charge           Charge          ....    0
 Multiplicity           Mult            ....    1
 Number of Electrons    NEL             ....   36
Dispersion correction           -0.000594082
FINAL SINGLE POINT ENERGY      -231.465169344281
Dispersion correction           -0.000253585
FINAL SINGLE POINT ENERGY      -115.733840474802

CARTESIAN COORDINATES (ANGSTROEM)
---------------------------------
  C     -1.179622   -0.680025    6.462159
  O     -1.994517    0.038928    7.405688
  H     -2.109912    0.907878    7.079844
  H     -0.109920   -0.503745    6.727623
  H     -1.354234   -1.756892    6.522703
  H     -1.366128   -0.313220    5.402350
  C     -1.061053    5.301009   11.263492
  O     -1.295647    4.489598   10.101776
  H     -1.351680    3.540695   10.358751
  H     -0.103723    5.314560   11.688800
  H     -1.275487    6.334969   11.016867
  H     -1.821840    4.945084   11.969522

 Multiplicity           Mult            ....    1
 Number of Electrons    NEL             ....   18
 Basis Dimension        Dim             ....  172

ORBITAL ENERGIES
----------------

  NO   OCC          E(Eh)            E(eV)
   0   2.0000     -19.229004      -523.2478
   1   2.0000     -10.309039      -280.5232
   2   2.0000      -1.122495       -30.5447
   3   2.0000      -0.798974       -21.7412
   4   2.0000      -0.602674       -16.3996
   5   2.0000      -0.549548       -14.9540
   6   2.0000      -0.523540       -14.2463
   7   2.0000      -0.427472       -11.6321
   8   2.0000      -0.373289       -10.1577
   9   0.0000       0.086488         2.3535
  10   0.0000       0.111532         3.0349
  11   0.0000       0.152240         4.1427
  12   0.0000       0.169787         4.6201
  13   0.0000       0.196981         5.3601

MULLIKEN ATOMIC CHARGES
-----------------------
   0 C :    0.000003
   1 O :    0.000001
   2 H :   -0.000045
   3 H :   -0.000000
   4 H :    0.000000
   5 H :   -0.000000
   6 C :   -0.163403
   7 O :   -0.487450
   8 H :    0.316839
   9 H :    0.109862
  10 H :    0.118806
  11 H :    0.105387
Sum of atomic charges:   -0.0000000

LOEWDIN ATOMIC CHARGES
----------------------
   0 C :   -0.000001
   1 O :   -0.000003
   2 H :   -0.000019
   3 H :   -0.000000
   4 H :   -0.000000
   5 H :   -0.000000
   6 C :   -0.363523
   7 O :   -0.108147
   8 H :    0.179394
   9 H :    0.083920
  10 H :    0.107300
  11 H :    0.101080

  Mayer bond orders larger than 0.1
B(  6-C ,  7-O ) :   0.9981 B(  6-C ,  9-H ) :   0.9625 B(  6-C , 10-H ) :   0.9756
B(  6-C , 11-H ) :   0.9945 B(  7-O ,  8-H ) :   0.8951

Dispersion correction           -0.000245344
FINAL SINGLE POINT ENERGY      -115.730437163165

DIPOLE MOMENT
-------------
                                X             Y             Z
Electronic contribution:     -0.12522      -0.88559      -1.50681
Nuclear contribution   :      0.18496       0.63841       2.15178
                        -----------------------------------------
Total Dipole Moment    :      0.05974      -0.24718       0.64497
                        -----------------------------------------
Magnitude (a.u.)       :      0.69329
Magnitude (Debye)      :      1.76220

Rotational constants in cm-1:     4.400309     0.812512     0.782846
Rotational constants in MHz : 131917.945058 24358.484891 23469.144097

                             ****ORCA TERMINATED NORMALLY****
TOTAL RUN TIME: 0 days 0 hours 6 minutes 12 seconds 261 msec
