                         Program Version 4.1.2  - RELEASE  -
|  1> #Run DFT-D3 single point of the dimer
|  2> ! wB97X-D3 def2-TZVP TIGHTSCF CHELPG PMODEL PAL8
|  3>
|  4> %base "6-184_DFT_AB"
|  5>
|  6> %scf
|  7> MaxIter 1000
|  8> end
|  9>
| 10> * xyz 0 1
| 11>   C                      4.251068             10.373238            -10.942993
| 12>   O                      4.282890             10.059586            -9.602691
| 13>   H                      4.103217             10.774332            -8.994932
| 14>   H                      4.572408             9.552244             -11.589657
| 15>   H                      3.206666             10.655658            -11.251248
| 16>   H                      4.885363             11.231437            -11.224816
| 17>   C                      1.633574             10.369596            -8.118761
| 18>   O                      2.341483             11.343131            -7.413708
| 19>   H                      2.068565             11.232816            -6.500438
| 20>   H                      0.633480             10.177158            -7.607280
| 21>   H                      1.428288             10.614693            -9.135905
| 22>   H                      2.156718             9.425872             -8.155743
| 23> *
| 24>
| 25> #Run DFT-D3 single point of the molecule with dimer basis set
| 26> $new_job
| 27> %base "6-184_DFT_A"
| 28> ! wB97X-D3 def2-TZVP TIGHTSCF CHELPG PMODEL
| 29>
| 30> %scf
| 31> MaxIter 1000
| 32> end
| 33>
| 34> * xyz 0 1
| 35>   C                      4.251068             10.373238            -10.942993
| 36>   O                      4.282890             10.059586            -9.602691
| 37>   H                      4.103217             10.774332            -8.994932
| 38>   H                      4.572408             9.552244             -11.589657
| 39>   H                      3.206666             10.655658            -11.251248
| 40>   H                      4.885363             11.231437            -11.224816
| 41>   C                    : 1.633574             10.369596            -8.118761
| 42>   O                    : 2.341483             11.343131            -7.413708
| 43>   H                    : 2.068565             11.232816            -6.500438
| 44>   H                    : 0.633480             10.177158            -7.607280
| 45>   H                    : 1.428288             10.614693            -9.135905
| 46>   H                    : 2.156718             9.425872             -8.155743
| 47> *
| 48>
| 49> #Run DFT-D3 single point of the particle with dimer basis set
| 50> $new_job
| 51> %base "6-184_DFT_B"
| 52> ! wB97X-D3 def2-TZVP TIGHTSCF CHELPG PMODEL
| 53>
| 54> %scf
| 55> MaxIter 1000
| 56> end
| 57>
| 58> * xyz 0 1
| 59>   C                    : 4.251068             10.373238            -10.942993
| 60>   O                    : 4.282890             10.059586            -9.602691
| 61>   H                    : 4.103217             10.774332            -8.994932
| 62>   H                    : 4.572408             9.552244             -11.589657
| 63>   H                    : 3.206666             10.655658            -11.251248
| 64>   H                    : 4.885363             11.231437            -11.224816
| 65>   C                      1.633574             10.369596            -8.118761
| 66>   O                      2.341483             11.343131            -7.413708
| 67>   H                      2.068565             11.232816            -6.500438
| 68>   H                      0.633480             10.177158            -7.607280
| 69>   H                      1.428288             10.614693            -9.135905
| 70>   H                      2.156718             9.425872             -8.155743
| 71> *
| 72>
| 73>                          ****END OF INPUT****
 Total Charge           Charge          ....    0
 Multiplicity           Mult            ....    1
 Number of Electrons    NEL             ....   36
Dispersion correction           -0.002057524
FINAL SINGLE POINT ENERGY      -231.472538928103
Dispersion correction           -0.000254106
FINAL SINGLE POINT ENERGY      -115.734380590724

CARTESIAN COORDINATES (ANGSTROEM)
---------------------------------
  C      4.251068   10.373238  -10.942993
  O      4.282890   10.059586   -9.602691
  H      4.103217   10.774332   -8.994932
  H      4.572408    9.552244  -11.589657
  H      3.206666   10.655658  -11.251248
  H      4.885363   11.231437  -11.224816
  C      1.633574   10.369596   -8.118761
  O      2.341483   11.343131   -7.413708
  H      2.068565   11.232816   -6.500438
  H      0.633480   10.177158   -7.607280
  H      1.428288   10.614693   -9.135905
  H      2.156718    9.425872   -8.155743

 Multiplicity           Mult            ....    1
 Number of Electrons    NEL             ....   18
 Basis Dimension        Dim             ....  172

ORBITAL ENERGIES
----------------

  NO   OCC          E(Eh)            E(eV)
   0   2.0000     -19.232198      -523.3347
   1   2.0000     -10.311948      -280.6024
   2   2.0000      -1.145301       -31.1652
   3   2.0000      -0.794715       -21.6253
   4   2.0000      -0.613312       -16.6891
   5   2.0000      -0.542007       -14.7488
   6   2.0000      -0.537489       -14.6258
   7   2.0000      -0.433053       -11.7840
   8   2.0000      -0.373144       -10.1538
   9   0.0000       0.091621         2.4931
  10   0.0000       0.117887         3.2079
  11   0.0000       0.157135         4.2759
  12   0.0000       0.181312         4.9337
  13   0.0000       0.189273         5.1504

MULLIKEN ATOMIC CHARGES
-----------------------
   0 C :    0.000193
   1 O :    0.001613
   2 H :   -0.004209
   3 H :   -0.000009
   4 H :   -0.000180
   5 H :   -0.000071
   6 C :   -0.178355
   7 O :   -0.460674
   8 H :    0.318417
   9 H :    0.101528
  10 H :    0.116150
  11 H :    0.105597
Sum of atomic charges:    0.0000000

LOEWDIN ATOMIC CHARGES
----------------------
   0 C :   -0.002114
   1 O :   -0.004812
   2 H :   -0.012306
   3 H :   -0.000019
   4 H :   -0.001258
   5 H :   -0.000017
   6 C :   -0.397748
   7 O :   -0.053557
   8 H :    0.174155
   9 H :    0.104060
  10 H :    0.100018
  11 H :    0.093598

  Mayer bond orders larger than 0.1
B(  6-C ,  7-O ) :   1.0055 B(  6-C ,  9-H ) :   0.9819 B(  6-C , 10-H ) :   0.9756
B(  6-C , 11-H ) :   0.9783 B(  7-O ,  8-H ) :   0.8977

Dispersion correction           -0.000230015
FINAL SINGLE POINT ENERGY      -115.733132498343

DIPOLE MOMENT
-------------
                                X             Y             Z
Electronic contribution:      1.07859       1.40830       0.73192
Nuclear contribution   :     -1.52388      -1.83980      -0.43420
                        -----------------------------------------
Total Dipole Moment    :     -0.44529      -0.43150       0.29771
                        -----------------------------------------
Magnitude (a.u.)       :      0.68783
Magnitude (Debye)      :      1.74832

Rotational constants in cm-1:     4.321081     0.850893     0.814755
Rotational constants in MHz : 129542.741380 25509.129257 24425.754772

                             ****ORCA TERMINATED NORMALLY****
TOTAL RUN TIME: 0 days 0 hours 1 minutes 9 seconds 416 msec
