                         Program Version 4.1.2  - RELEASE  -
|  1> #Run DFT-D3 single point of the dimer
|  2> ! wB97X-D3 def2-TZVP TIGHTSCF CHELPG PMODEL PAL8
|  3>
|  4> %base "13-109_DFT_AB"
|  5>
|  6> %scf
|  7> MaxIter 1000
|  8> end
|  9>
| 10> * xyz 0 1
| 11>   C                      -6.030512            6.655904             1.816928
| 12>   O                      -5.728468            6.776601             3.218112
| 13>   H                      -4.798940            6.874311             3.255842
| 14>   H                      -7.104650            6.813739             1.601745
| 15>   H                      -5.444522            7.352368             1.185617
| 16>   H                      -5.877691            5.637061             1.551672
| 17>   C                      -9.805900            3.760904             2.946252
| 18>   O                      -8.501350            3.221238             2.916457
| 19>   H                      -8.652052            2.302385             3.242100
| 20>   H                      -9.828623            4.738476             2.390986
| 21>   H                      -10.557161           3.187259             2.380926
| 22>   H                      -10.169463           4.061940             3.910981
| 23> *
| 24>
| 25> #Run DFT-D3 single point of the molecule with dimer basis set
| 26> $new_job
| 27> %base "13-109_DFT_A"
| 28> ! wB97X-D3 def2-TZVP TIGHTSCF CHELPG PMODEL
| 29>
| 30> %scf
| 31> MaxIter 1000
| 32> end
| 33>
| 34> * xyz 0 1
| 35>   C                      -6.030512            6.655904             1.816928
| 36>   O                      -5.728468            6.776601             3.218112
| 37>   H                      -4.798940            6.874311             3.255842
| 38>   H                      -7.104650            6.813739             1.601745
| 39>   H                      -5.444522            7.352368             1.185617
| 40>   H                      -5.877691            5.637061             1.551672
| 41>   C                    : -9.805900            3.760904             2.946252
| 42>   O                    : -8.501350            3.221238             2.916457
| 43>   H                    : -8.652052            2.302385             3.242100
| 44>   H                    : -9.828623            4.738476             2.390986
| 45>   H                    : -10.557161           3.187259             2.380926
| 46>   H                    : -10.169463           4.061940             3.910981
| 47> *
| 48>
| 49> #Run DFT-D3 single point of the particle with dimer basis set
| 50> $new_job
| 51> %base "13-109_DFT_B"
| 52> ! wB97X-D3 def2-TZVP TIGHTSCF CHELPG PMODEL
| 53>
| 54> %scf
| 55> MaxIter 1000
| 56> end
| 57>
| 58> * xyz 0 1
| 59>   C                    : -6.030512            6.655904             1.816928
| 60>   O                    : -5.728468            6.776601             3.218112
| 61>   H                    : -4.798940            6.874311             3.255842
| 62>   H                    : -7.104650            6.813739             1.601745
| 63>   H                    : -5.444522            7.352368             1.185617
| 64>   H                    : -5.877691            5.637061             1.551672
| 65>   C                      -9.805900            3.760904             2.946252
| 66>   O                      -8.501350            3.221238             2.916457
| 67>   H                      -8.652052            2.302385             3.242100
| 68>   H                      -9.828623            4.738476             2.390986
| 69>   H                      -10.557161           3.187259             2.380926
| 70>   H                      -10.169463           4.061940             3.910981
| 71> *
| 72>
| 73>                          ****END OF INPUT****
 Total Charge           Charge          ....    0
 Multiplicity           Mult            ....    1
 Number of Electrons    NEL             ....   36
Dispersion correction           -0.000971845
FINAL SINGLE POINT ENERGY      -231.464819228728
Dispersion correction           -0.000238998
FINAL SINGLE POINT ENERGY      -115.732954068982

CARTESIAN COORDINATES (ANGSTROEM)
---------------------------------
  C     -6.030512    6.655904    1.816928
  O     -5.728468    6.776601    3.218112
  H     -4.798940    6.874311    3.255842
  H     -7.104650    6.813739    1.601745
  H     -5.444522    7.352368    1.185617
  H     -5.877691    5.637061    1.551672
  C     -9.805900    3.760904    2.946252
  O     -8.501350    3.221238    2.916457
  H     -8.652052    2.302385    3.242100
  H     -9.828623    4.738476    2.390986
  H    -10.557161    3.187259    2.380926
  H    -10.169463    4.061940    3.910981

 Multiplicity           Mult            ....    1
 Number of Electrons    NEL             ....   18
 Basis Dimension        Dim             ....  172

ORBITAL ENERGIES
----------------

  NO   OCC          E(Eh)            E(eV)
   0   2.0000     -19.239236      -523.5262
   1   2.0000     -10.314211      -280.6639
   2   2.0000      -1.137948       -30.9652
   3   2.0000      -0.792540       -21.5661
   4   2.0000      -0.606682       -16.5087
   5   2.0000      -0.548215       -14.9177
   6   2.0000      -0.522947       -14.2301
   7   2.0000      -0.430310       -11.7093
   8   2.0000      -0.379815       -10.3353
   9   0.0000       0.093763         2.5514
  10   0.0000       0.115968         3.1557
  11   0.0000       0.147491         4.0134
  12   0.0000       0.168632         4.5887
  13   0.0000       0.191388         5.2079

MULLIKEN ATOMIC CHARGES
-----------------------
   0 C :   -0.000132
   1 O :    0.000051
   2 H :   -0.000000
   3 H :   -0.000166
   4 H :   -0.000039
   5 H :   -0.000902
   6 C :   -0.177303
   7 O :   -0.458467
   8 H :    0.317437
   9 H :    0.111299
  10 H :    0.106041
  11 H :    0.102182
Sum of atomic charges:    0.0000000

LOEWDIN ATOMIC CHARGES
----------------------
   0 C :   -0.000458
   1 O :   -0.000027
   2 H :   -0.000002
   3 H :   -0.000161
   4 H :   -0.000014
   5 H :   -0.000413
   6 C :   -0.407175
   7 O :   -0.080634
   8 H :    0.189105
   9 H :    0.114009
  10 H :    0.096719
  11 H :    0.089051

  Mayer bond orders larger than 0.1
B(  6-C ,  7-O ) :   1.0113 B(  6-C ,  9-H ) :   0.9763 B(  6-C , 10-H ) :   0.9747
B(  6-C , 11-H ) :   0.9712 B(  7-O ,  8-H ) :   0.8969

Dispersion correction           -0.000250801
FINAL SINGLE POINT ENERGY      -115.731683267490

DIPOLE MOMENT
-------------
                                X             Y             Z
Electronic contribution:      1.83202      -0.73243       0.02861
Nuclear contribution   :     -2.42141       0.38956       0.17035
                        -----------------------------------------
Total Dipole Moment    :     -0.58939      -0.34287       0.19896
                        -----------------------------------------
Magnitude (a.u.)       :      0.71030
Magnitude (Debye)      :      1.80544

Rotational constants in cm-1:     4.300401     0.823730     0.797456
Rotational constants in MHz : 128922.792787 24694.810470 23907.122863

                             ****ORCA TERMINATED NORMALLY****
TOTAL RUN TIME: 0 days 0 hours 1 minutes 11 seconds 152 msec
