                         Program Version 4.1.2  - RELEASE  -
|  1> #Run DFT-D3 single point of the dimer
|  2> ! wB97X-D3 def2-TZVP TIGHTSCF CHELPG PMODEL PAL8
|  3>
|  4> %base "13-92_DFT_AB"
|  5>
|  6> %scf
|  7> MaxIter 1000
|  8> end
|  9>
| 10> * xyz 0 1
| 11>   C                      8.560098             -2.673546            8.422270
| 12>   O                      8.250090             -2.701109            9.788705
| 13>   H                      8.844717             -3.285811            10.224851
| 14>   H                      9.658630             -2.494390            8.335668
| 15>   H                      8.219889             -3.530177            7.895463
| 16>   H                      8.112362             -1.780007            7.980744
| 17>   C                      5.358170             -4.553323            8.289341
| 18>   O                      4.758662             -5.702051            7.788265
| 19>   H                      5.369109             -6.434928            7.839393
| 20>   H                      4.957496             -3.566630            7.869189
| 21>   H                      5.109407             -4.431742            9.340299
| 22>   H                      6.408784             -4.531158            8.178149
| 23> *
| 24>
| 25> #Run DFT-D3 single point of the molecule with dimer basis set
| 26> $new_job
| 27> %base "13-92_DFT_A"
| 28> ! wB97X-D3 def2-TZVP TIGHTSCF CHELPG PMODEL
| 29>
| 30> %scf
| 31> MaxIter 1000
| 32> end
| 33>
| 34> * xyz 0 1
| 35>   C                      8.560098             -2.673546            8.422270
| 36>   O                      8.250090             -2.701109            9.788705
| 37>   H                      8.844717             -3.285811            10.224851
| 38>   H                      9.658630             -2.494390            8.335668
| 39>   H                      8.219889             -3.530177            7.895463
| 40>   H                      8.112362             -1.780007            7.980744
| 41>   C                    : 5.358170             -4.553323            8.289341
| 42>   O                    : 4.758662             -5.702051            7.788265
| 43>   H                    : 5.369109             -6.434928            7.839393
| 44>   H                    : 4.957496             -3.566630            7.869189
| 45>   H                    : 5.109407             -4.431742            9.340299
| 46>   H                    : 6.408784             -4.531158            8.178149
| 47> *
| 48>
| 49> #Run DFT-D3 single point of the particle with dimer basis set
| 50> $new_job
| 51> %base "13-92_DFT_B"
| 52> ! wB97X-D3 def2-TZVP TIGHTSCF CHELPG PMODEL
| 53>
| 54> %scf
| 55> MaxIter 1000
| 56> end
| 57>
| 58> * xyz 0 1
| 59>   C                    : 8.560098             -2.673546            8.422270
| 60>   O                    : 8.250090             -2.701109            9.788705
| 61>   H                    : 8.844717             -3.285811            10.224851
| 62>   H                    : 9.658630             -2.494390            8.335668
| 63>   H                    : 8.219889             -3.530177            7.895463
| 64>   H                    : 8.112362             -1.780007            7.980744
| 65>   C                      5.358170             -4.553323            8.289341
| 66>   O                      4.758662             -5.702051            7.788265
| 67>   H                      5.369109             -6.434928            7.839393
| 68>   H                      4.957496             -3.566630            7.869189
| 69>   H                      5.109407             -4.431742            9.340299
| 70>   H                      6.408784             -4.531158            8.178149
| 71> *
| 72>
| 73>                          ****END OF INPUT****
 Total Charge           Charge          ....    0
 Multiplicity           Mult            ....    1
 Number of Electrons    NEL             ....   36
Dispersion correction           -0.001698297
FINAL SINGLE POINT ENERGY      -231.466342127472
Dispersion correction           -0.000226227
FINAL SINGLE POINT ENERGY      -115.734702337041

CARTESIAN COORDINATES (ANGSTROEM)
---------------------------------
  C      8.560098   -2.673546    8.422270
  O      8.250090   -2.701109    9.788705
  H      8.844717   -3.285811   10.224851
  H      9.658630   -2.494390    8.335668
  H      8.219889   -3.530177    7.895463
  H      8.112362   -1.780007    7.980744
  C      5.358170   -4.553323    8.289341
  O      4.758662   -5.702051    7.788265
  H      5.369109   -6.434928    7.839393
  H      4.957496   -3.566630    7.869189
  H      5.109407   -4.431742    9.340299
  H      6.408784   -4.531158    8.178149

 Multiplicity           Mult            ....    1
 Number of Electrons    NEL             ....   18
 Basis Dimension        Dim             ....  172

ORBITAL ENERGIES
----------------

  NO   OCC          E(Eh)            E(eV)
   0   2.0000     -19.231180      -523.3070
   1   2.0000     -10.311391      -280.5872
   2   2.0000      -1.144876       -31.1537
   3   2.0000      -0.796871       -21.6840
   4   2.0000      -0.621138       -16.9020
   5   2.0000      -0.544256       -14.8100
   6   2.0000      -0.527792       -14.3619
   7   2.0000      -0.431353       -11.7377
   8   2.0000      -0.370141       -10.0720
   9   0.0000       0.082274         2.2388
  10   0.0000       0.118285         3.2187
  11   0.0000       0.153650         4.1810
  12   0.0000       0.160822         4.3762
  13   0.0000       0.192291         5.2325

MULLIKEN ATOMIC CHARGES
-----------------------
   0 C :   -0.002458
   1 O :    0.000067
   2 H :   -0.000063
   3 H :   -0.000171
   4 H :    0.000545
   5 H :    0.000044
   6 C :   -0.161344
   7 O :   -0.469569
   8 H :    0.318466
   9 H :    0.105361
  10 H :    0.101341
  11 H :    0.107780
Sum of atomic charges:   -0.0000000

LOEWDIN ATOMIC CHARGES
----------------------
   0 C :   -0.007569
   1 O :   -0.000496
   2 H :   -0.000137
   3 H :   -0.000063
   4 H :   -0.007779
   5 H :   -0.000222
   6 C :   -0.403877
   7 O :   -0.052934
   8 H :    0.169537
   9 H :    0.115703
  10 H :    0.094263
  11 H :    0.093574

  Mayer bond orders larger than 0.1
B(  6-C ,  7-O ) :   1.0110 B(  6-C ,  9-H ) :   0.9725 B(  6-C , 10-H ) :   0.9761
B(  6-C , 11-H ) :   0.9853 B(  7-O ,  8-H ) :   0.8966

Dispersion correction           -0.000245187
FINAL SINGLE POINT ENERGY      -115.731214999038

DIPOLE MOMENT
-------------
                                X             Y             Z
Electronic contribution:     -0.81219      -1.57024      -0.76877
Nuclear contribution   :      1.45670       1.52826       0.99230
                        -----------------------------------------
Total Dipole Moment    :      0.64450      -0.04198       0.22353
                        -----------------------------------------
Magnitude (a.u.)       :      0.68346
Magnitude (Debye)      :      1.73721

Rotational constants in cm-1:     4.457475     0.844581     0.811088
Rotational constants in MHz : 133631.727461 25319.898494 24315.793204

                             ****ORCA TERMINATED NORMALLY****
TOTAL RUN TIME: 0 days 0 hours 1 minutes 5 seconds 39 msec
