                         Program Version 4.1.2  - RELEASE  -
|  1> #Run DFT-D3 single point of the dimer
|  2> ! wB97X-D3 def2-TZVP TIGHTSCF CHELPG PMODEL PAL8
|  3>
|  4> %base "6-76_DFT_AB"
|  5>
|  6> %scf
|  7> MaxIter 1000
|  8> end
|  9>
| 10> * xyz 0 1
| 11>   C                      -4.592135            -8.778354            -4.672863
| 12>   O                      -4.996036            -7.685713            -3.782804
| 13>   H                      -4.696775            -7.821721            -2.928204
| 14>   H                      -3.534098            -9.010149            -4.638917
| 15>   H                      -5.112055            -9.688766            -4.343416
| 16>   H                      -4.938609            -8.647915            -5.698391
| 17>   C                      -1.936839            -7.101095            -2.876770
| 18>   O                      -3.061484            -6.946725            -2.043370
| 19>   H                      -3.335684            -6.055807            -2.122500
| 20>   H                      -1.004453            -6.991422            -2.356135
| 21>   H                      -1.884352            -8.095574            -3.432958
| 22>   H                      -1.945391            -6.367581            -3.715468
| 23> *
| 24>
| 25> #Run DFT-D3 single point of the molecule with dimer basis set
| 26> $new_job
| 27> %base "6-76_DFT_A"
| 28> ! wB97X-D3 def2-TZVP TIGHTSCF CHELPG PMODEL
| 29>
| 30> %scf
| 31> MaxIter 1000
| 32> end
| 33>
| 34> * xyz 0 1
| 35>   C                      -4.592135            -8.778354            -4.672863
| 36>   O                      -4.996036            -7.685713            -3.782804
| 37>   H                      -4.696775            -7.821721            -2.928204
| 38>   H                      -3.534098            -9.010149            -4.638917
| 39>   H                      -5.112055            -9.688766            -4.343416
| 40>   H                      -4.938609            -8.647915            -5.698391
| 41>   C                    : -1.936839            -7.101095            -2.876770
| 42>   O                    : -3.061484            -6.946725            -2.043370
| 43>   H                    : -3.335684            -6.055807            -2.122500
| 44>   H                    : -1.004453            -6.991422            -2.356135
| 45>   H                    : -1.884352            -8.095574            -3.432958
| 46>   H                    : -1.945391            -6.367581            -3.715468
| 47> *
| 48>
| 49> #Run DFT-D3 single point of the particle with dimer basis set
| 50> $new_job
| 51> %base "6-76_DFT_B"
| 52> ! wB97X-D3 def2-TZVP TIGHTSCF CHELPG PMODEL
| 53>
| 54> %scf
| 55> MaxIter 1000
| 56> end
| 57>
| 58> * xyz 0 1
| 59>   C                    : -4.592135            -8.778354            -4.672863
| 60>   O                    : -4.996036            -7.685713            -3.782804
| 61>   H                    : -4.696775            -7.821721            -2.928204
| 62>   H                    : -3.534098            -9.010149            -4.638917
| 63>   H                    : -5.112055            -9.688766            -4.343416
| 64>   H                    : -4.938609            -8.647915            -5.698391
| 65>   C                      -1.936839            -7.101095            -2.876770
| 66>   O                      -3.061484            -6.946725            -2.043370
| 67>   H                      -3.335684            -6.055807            -2.122500
| 68>   H                      -1.004453            -6.991422            -2.356135
| 69>   H                      -1.884352            -8.095574            -3.432958
| 70>   H                      -1.945391            -6.367581            -3.715468
| 71> *
| 72>
| 73>                          ****END OF INPUT****
 Total Charge           Charge          ....    0
 Multiplicity           Mult            ....    1
 Number of Electrons    NEL             ....   36
Dispersion correction           -0.002274855
FINAL SINGLE POINT ENERGY      -231.467613106609
Dispersion correction           -0.000267042
FINAL SINGLE POINT ENERGY      -115.731146364332

CARTESIAN COORDINATES (ANGSTROEM)
---------------------------------
  C     -4.592135   -8.778354   -4.672863
  O     -4.996036   -7.685713   -3.782804
  H     -4.696775   -7.821721   -2.928204
  H     -3.534098   -9.010149   -4.638917
  H     -5.112055   -9.688766   -4.343416
  H     -4.938609   -8.647915   -5.698391
  C     -1.936839   -7.101095   -2.876770
  O     -3.061484   -6.946725   -2.043370
  H     -3.335684   -6.055807   -2.122500
  H     -1.004453   -6.991422   -2.356135
  H     -1.884352   -8.095574   -3.432958
  H     -1.945391   -6.367581   -3.715468

 Multiplicity           Mult            ....    1
 Number of Electrons    NEL             ....   18
 Basis Dimension        Dim             ....  172

ORBITAL ENERGIES
----------------

  NO   OCC          E(Eh)            E(eV)
   0   2.0000     -19.232560      -523.3446
   1   2.0000     -10.318713      -280.7864
   2   2.0000      -1.146252       -31.1911
   3   2.0000      -0.795432       -21.6448
   4   2.0000      -0.617447       -16.8016
   5   2.0000      -0.544191       -14.8082
   6   2.0000      -0.526840       -14.3360
   7   2.0000      -0.429981       -11.7004
   8   2.0000      -0.378309       -10.2943
   9   0.0000       0.093590         2.5467
  10   0.0000       0.124179         3.3791
  11   0.0000       0.149372         4.0646
  12   0.0000       0.185979         5.0607
  13   0.0000       0.202115         5.4998

MULLIKEN ATOMIC CHARGES
-----------------------
   0 C :    0.000140
   1 O :   -0.003000
   2 H :   -0.007256
   3 H :   -0.000561
   4 H :   -0.000123
   5 H :    0.000019
   6 C :   -0.183246
   7 O :   -0.457786
   8 H :    0.316712
   9 H :    0.115895
  10 H :    0.113986
  11 H :    0.105221
Sum of atomic charges:   -0.0000000

LOEWDIN ATOMIC CHARGES
----------------------
   0 C :   -0.005878
   1 O :   -0.013176
   2 H :   -0.033465
   3 H :   -0.005633
   4 H :   -0.000043
   5 H :   -0.000037
   6 C :   -0.391506
   7 O :   -0.019294
   8 H :    0.158449
   9 H :    0.092270
  10 H :    0.117888
  11 H :    0.100424

  Mayer bond orders larger than 0.1
B(  6-C ,  7-O ) :   0.9966 B(  6-C ,  9-H ) :   0.9700 B(  6-C , 10-H ) :   0.9752
B(  6-C , 11-H ) :   0.9864 B(  7-O ,  8-H ) :   0.9015

Dispersion correction           -0.000252825
FINAL SINGLE POINT ENERGY      -115.732791203745

DIPOLE MOMENT
-------------
                                X             Y             Z
Electronic contribution:     -1.48310       0.08837       1.27354
Nuclear contribution   :      1.75268       0.44466      -1.65378
                        -----------------------------------------
Total Dipole Moment    :      0.26958       0.53303      -0.38024
                        -----------------------------------------
Magnitude (a.u.)       :      0.70808
Magnitude (Debye)      :      1.79979

Rotational constants in cm-1:     4.353081     0.824976     0.798414
Rotational constants in MHz : 130502.074711 24732.154353 23935.835848

                             ****ORCA TERMINATED NORMALLY****
TOTAL RUN TIME: 0 days 0 hours 1 minutes 6 seconds 544 msec
