                         Program Version 4.1.2  - RELEASE  -
|  1> #Run DFT-D3 single point of the dimer
|  2> ! wB97X-D3 def2-TZVP TIGHTSCF CHELPG PMODEL PAL8
|  3>
|  4> %base "15-122_DFT_AB"
|  5>
|  6> %scf
|  7> MaxIter 1000
|  8> end
|  9>
| 10> * xyz 0 1
| 11>   C                      4.368537             5.393558             -2.809895
| 12>   O                      3.561577             5.915263             -3.882099
| 13>   H                      2.747769             6.147654             -3.483270
| 14>   H                      4.522148             6.098134             -2.062670
| 15>   H                      3.985404             4.497609             -2.348490
| 16>   H                      5.365098             5.152908             -3.121065
| 17>   C                      5.802662             8.664042             -3.684977
| 18>   O                      6.585083             7.552426             -4.210731
| 19>   H                      5.950644             7.130417             -4.798706
| 20>   H                      6.455174             9.455196             -3.423040
| 21>   H                      5.071348             9.050916             -4.434736
| 22>   H                      5.290646             8.418091             -2.811630
| 23> *
| 24>
| 25> #Run DFT-D3 single point of the molecule with dimer basis set
| 26> $new_job
| 27> %base "15-122_DFT_A"
| 28> ! wB97X-D3 def2-TZVP TIGHTSCF CHELPG PMODEL
| 29>
| 30> %scf
| 31> MaxIter 1000
| 32> end
| 33>
| 34> * xyz 0 1
| 35>   C                      4.368537             5.393558             -2.809895
| 36>   O                      3.561577             5.915263             -3.882099
| 37>   H                      2.747769             6.147654             -3.483270
| 38>   H                      4.522148             6.098134             -2.062670
| 39>   H                      3.985404             4.497609             -2.348490
| 40>   H                      5.365098             5.152908             -3.121065
| 41>   C                    : 5.802662             8.664042             -3.684977
| 42>   O                    : 6.585083             7.552426             -4.210731
| 43>   H                    : 5.950644             7.130417             -4.798706
| 44>   H                    : 6.455174             9.455196             -3.423040
| 45>   H                    : 5.071348             9.050916             -4.434736
| 46>   H                    : 5.290646             8.418091             -2.811630
| 47> *
| 48>
| 49> #Run DFT-D3 single point of the particle with dimer basis set
| 50> $new_job
| 51> %base "15-122_DFT_B"
| 52> ! wB97X-D3 def2-TZVP TIGHTSCF CHELPG PMODEL
| 53>
| 54> %scf
| 55> MaxIter 1000
| 56> end
| 57>
| 58> * xyz 0 1
| 59>   C                    : 4.368537             5.393558             -2.809895
| 60>   O                    : 3.561577             5.915263             -3.882099
| 61>   H                    : 2.747769             6.147654             -3.483270
| 62>   H                    : 4.522148             6.098134             -2.062670
| 63>   H                    : 3.985404             4.497609             -2.348490
| 64>   H                    : 5.365098             5.152908             -3.121065
| 65>   C                      5.802662             8.664042             -3.684977
| 66>   O                      6.585083             7.552426             -4.210731
| 67>   H                      5.950644             7.130417             -4.798706
| 68>   H                      6.455174             9.455196             -3.423040
| 69>   H                      5.071348             9.050916             -4.434736
| 70>   H                      5.290646             8.418091             -2.811630
| 71> *
| 72>
| 73>                          ****END OF INPUT****
 Total Charge           Charge          ....    0
 Multiplicity           Mult            ....    1
 Number of Electrons    NEL             ....   36
Dispersion correction           -0.002382511
FINAL SINGLE POINT ENERGY      -231.469233875408
Dispersion correction           -0.000239997
FINAL SINGLE POINT ENERGY      -115.732107193757

CARTESIAN COORDINATES (ANGSTROEM)
---------------------------------
  C      4.368537    5.393558   -2.809895
  O      3.561577    5.915263   -3.882099
  H      2.747769    6.147654   -3.483270
  H      4.522148    6.098134   -2.062670
  H      3.985404    4.497609   -2.348490
  H      5.365098    5.152908   -3.121065
  C      5.802662    8.664042   -3.684977
  O      6.585083    7.552426   -4.210731
  H      5.950644    7.130417   -4.798706
  H      6.455174    9.455196   -3.423040
  H      5.071348    9.050916   -4.434736
  H      5.290646    8.418091   -2.811630

 Multiplicity           Mult            ....    1
 Number of Electrons    NEL             ....   18
 Basis Dimension        Dim             ....  172

ORBITAL ENERGIES
----------------

  NO   OCC          E(Eh)            E(eV)
   0   2.0000     -19.233545      -523.3714
   1   2.0000     -10.309734      -280.5421
   2   2.0000      -1.127467       -30.6799
   3   2.0000      -0.801971       -21.8227
   4   2.0000      -0.602318       -16.3899
   5   2.0000      -0.542983       -14.7753
   6   2.0000      -0.524364       -14.2687
   7   2.0000      -0.445261       -12.1162
   8   2.0000      -0.378118       -10.2891
   9   0.0000       0.079774         2.1708
  10   0.0000       0.130290         3.5454
  11   0.0000       0.148224         4.0334
  12   0.0000       0.165956         4.5159
  13   0.0000       0.191716         5.2169

MULLIKEN ATOMIC CHARGES
-----------------------
   0 C :   -0.003548
   1 O :   -0.000115
   2 H :   -0.000129
   3 H :    0.000951
   4 H :   -0.000644
   5 H :   -0.005528
   6 C :   -0.194755
   7 O :   -0.466842
   8 H :    0.315065
   9 H :    0.130369
  10 H :    0.110450
  11 H :    0.114725
Sum of atomic charges:   -0.0000000

LOEWDIN ATOMIC CHARGES
----------------------
   0 C :   -0.009894
   1 O :   -0.001775
   2 H :   -0.000138
   3 H :   -0.001938
   4 H :   -0.000117
   5 H :   -0.005175
   6 C :   -0.347272
   7 O :   -0.094667
   8 H :    0.169705
   9 H :    0.100486
  10 H :    0.104212
  11 H :    0.086571

  Mayer bond orders larger than 0.1
B(  6-C ,  7-O ) :   1.0026 B(  6-C ,  9-H ) :   0.9786 B(  6-C , 10-H ) :   0.9841
B(  6-C , 11-H ) :   0.9713 B(  7-O ,  8-H ) :   0.9046

Dispersion correction           -0.000241997
FINAL SINGLE POINT ENERGY      -115.732238703685

DIPOLE MOMENT
-------------
                                X             Y             Z
Electronic contribution:      1.12253      -1.36109      -0.52046
Nuclear contribution   :     -1.82326       1.58163       0.38438
                        -----------------------------------------
Total Dipole Moment    :     -0.70074       0.22053      -0.13609
                        -----------------------------------------
Magnitude (a.u.)       :      0.74712
Magnitude (Debye)      :      1.89902

Rotational constants in cm-1:     4.380181     0.802673     0.768334
Rotational constants in MHz : 131314.514677 24063.531799 23034.067429

                             ****ORCA TERMINATED NORMALLY****
TOTAL RUN TIME: 0 days 0 hours 1 minutes 1 seconds 836 msec
