                         Program Version 4.1.2  - RELEASE  -
|  1> #Run DFT-D3 single point of the dimer
|  2> ! wB97X-D3 def2-TZVP TIGHTSCF CHELPG PMODEL PAL8
|  3>
|  4> %base "16-196_DFT_AB"
|  5>
|  6> %scf
|  7> MaxIter 1000
|  8> end
|  9>
| 10> * xyz 0 1
| 11>   C                      -6.482326            -3.038393            -5.791056
| 12>   O                      -6.057388            -3.289651            -4.501937
| 13>   H                      -5.902887            -2.445885            -4.129103
| 14>   H                      -5.685988            -2.839495            -6.488605
| 15>   H                      -7.109373            -3.769275            -6.260965
| 16>   H                      -7.041879            -2.097533            -5.741855
| 17>   C                      -4.378816            -5.444975            -7.083358
| 18>   O                      -3.902493            -4.999915            -5.752956
| 19>   H                      -4.605135            -4.794553            -5.102366
| 20>   H                      -3.555004            -5.316298            -7.839353
| 21>   H                      -4.635740            -6.488972            -7.022439
| 22>   H                      -5.237637            -4.998744            -7.524706
| 23> *
| 24>
| 25> #Run DFT-D3 single point of the molecule with dimer basis set
| 26> $new_job
| 27> %base "16-196_DFT_A"
| 28> ! wB97X-D3 def2-TZVP TIGHTSCF CHELPG PMODEL
| 29>
| 30> %scf
| 31> MaxIter 1000
| 32> end
| 33>
| 34> * xyz 0 1
| 35>   C                      -6.482326            -3.038393            -5.791056
| 36>   O                      -6.057388            -3.289651            -4.501937
| 37>   H                      -5.902887            -2.445885            -4.129103
| 38>   H                      -5.685988            -2.839495            -6.488605
| 39>   H                      -7.109373            -3.769275            -6.260965
| 40>   H                      -7.041879            -2.097533            -5.741855
| 41>   C                    : -4.378816            -5.444975            -7.083358
| 42>   O                    : -3.902493            -4.999915            -5.752956
| 43>   H                    : -4.605135            -4.794553            -5.102366
| 44>   H                    : -3.555004            -5.316298            -7.839353
| 45>   H                    : -4.635740            -6.488972            -7.022439
| 46>   H                    : -5.237637            -4.998744            -7.524706
| 47> *
| 48>
| 49> #Run DFT-D3 single point of the particle with dimer basis set
| 50> $new_job
| 51> %base "16-196_DFT_B"
| 52> ! wB97X-D3 def2-TZVP TIGHTSCF CHELPG PMODEL
| 53>
| 54> %scf
| 55> MaxIter 1000
| 56> end
| 57>
| 58> * xyz 0 1
| 59>   C                    : -6.482326            -3.038393            -5.791056
| 60>   O                    : -6.057388            -3.289651            -4.501937
| 61>   H                    : -5.902887            -2.445885            -4.129103
| 62>   H                    : -5.685988            -2.839495            -6.488605
| 63>   H                    : -7.109373            -3.769275            -6.260965
| 64>   H                    : -7.041879            -2.097533            -5.741855
| 65>   C                      -4.378816            -5.444975            -7.083358
| 66>   O                      -3.902493            -4.999915            -5.752956
| 67>   H                      -4.605135            -4.794553            -5.102366
| 68>   H                      -3.555004            -5.316298            -7.839353
| 69>   H                      -4.635740            -6.488972            -7.022439
| 70>   H                      -5.237637            -4.998744            -7.524706
| 71> *
| 72>
| 73>                          ****END OF INPUT****
 Total Charge           Charge          ....    0
 Multiplicity           Mult            ....    1
 Number of Electrons    NEL             ....   36
Dispersion correction           -0.002269013
FINAL SINGLE POINT ENERGY      -231.464053874296
Dispersion correction           -0.000212795
FINAL SINGLE POINT ENERGY      -115.730459245476

CARTESIAN COORDINATES (ANGSTROEM)
---------------------------------
  C     -6.482326   -3.038393   -5.791056
  O     -6.057388   -3.289651   -4.501937
  H     -5.902887   -2.445885   -4.129103
  H     -5.685988   -2.839495   -6.488605
  H     -7.109373   -3.769275   -6.260965
  H     -7.041879   -2.097533   -5.741855
  C     -4.378816   -5.444975   -7.083358
  O     -3.902493   -4.999915   -5.752956
  H     -4.605135   -4.794553   -5.102366
  H     -3.555004   -5.316298   -7.839353
  H     -4.635740   -6.488972   -7.022439
  H     -5.237637   -4.998744   -7.524706

 Multiplicity           Mult            ....    1
 Number of Electrons    NEL             ....   18
 Basis Dimension        Dim             ....  172

ORBITAL ENERGIES
----------------

  NO   OCC          E(Eh)            E(eV)
   0   2.0000     -19.232281      -523.3370
   1   2.0000     -10.318316      -280.7756
   2   2.0000      -1.109829       -30.2000
   3   2.0000      -0.803068       -21.8526
   4   2.0000      -0.604965       -16.4619
   5   2.0000      -0.533395       -14.5144
   6   2.0000      -0.512756       -13.9528
   7   2.0000      -0.433087       -11.7849
   8   2.0000      -0.375587       -10.2202
   9   0.0000       0.075839         2.0637
  10   0.0000       0.134131         3.6499
  11   0.0000       0.143239         3.8977
  12   0.0000       0.174151         4.7389
  13   0.0000       0.185749         5.0545

MULLIKEN ATOMIC CHARGES
-----------------------
   0 C :   -0.013866
   1 O :   -0.000803
   2 H :   -0.000161
   3 H :    0.001969
   4 H :    0.001567
   5 H :   -0.000396
   6 C :   -0.173798
   7 O :   -0.494022
   8 H :    0.318748
   9 H :    0.126311
  10 H :    0.118784
  11 H :    0.115667
Sum of atomic charges:   -0.0000000

LOEWDIN ATOMIC CHARGES
----------------------
   0 C :   -0.018393
   1 O :   -0.011015
   2 H :   -0.000765
   3 H :   -0.004705
   4 H :   -0.001859
   5 H :   -0.000190
   6 C :   -0.332284
   7 O :   -0.116538
   8 H :    0.178972
   9 H :    0.117467
  10 H :    0.095879
  11 H :    0.093429

  Mayer bond orders larger than 0.1
B(  6-C ,  7-O ) :   0.9843 B(  6-C ,  9-H ) :   0.9734 B(  6-C , 10-H ) :   0.9826
B(  6-C , 11-H ) :   0.9637 B(  7-O ,  8-H ) :   0.8940

Dispersion correction           -0.000307063
FINAL SINGLE POINT ENERGY      -115.727898846824

DIPOLE MOMENT
-------------
                                X             Y             Z
Electronic contribution:      0.64015       0.61011       1.60627
Nuclear contribution   :     -1.31378      -0.68202      -1.79077
                        -----------------------------------------
Total Dipole Moment    :     -0.67363      -0.07191      -0.18450
                        -----------------------------------------
Magnitude (a.u.)       :      0.70213
Magnitude (Debye)      :      1.78468

Rotational constants in cm-1:     4.499876     0.755200     0.728352
Rotational constants in MHz : 134902.878812 22640.332239 21835.440704

                             ****ORCA TERMINATED NORMALLY****
TOTAL RUN TIME: 0 days 0 hours 1 minutes 5 seconds 64 msec
