                         Program Version 4.1.2  - RELEASE  -
|  1> #Run DFT-D3 single point of the dimer
|  2> ! wB97X-D3 def2-TZVP TIGHTSCF CHELPG PMODEL PAL8
|  3>
|  4> %base "11-13_DFT_AB"
|  5>
|  6> %scf
|  7> MaxIter 1000
|  8> end
|  9>
| 10> * xyz 0 1
| 11>   C                      -9.588072            -1.444471            5.461368
| 12>   O                      -10.403230           -2.633637            5.367968
| 13>   H                      -11.278415           -2.425012            5.028035
| 14>   H                      -9.139766            -1.218325            4.490122
| 15>   H                      -10.162974           -0.559693            5.727943
| 16>   H                      -8.740249            -1.545357            6.116138
| 17>   C                      -4.262804            -3.298811            4.931557
| 18>   O                      -3.864564            -2.942529            6.210114
| 19>   H                      -2.899731            -2.834253            6.123950
| 20>   H                      -4.286093            -4.428996            4.908977
| 21>   H                      -5.227939            -2.841040            4.620827
| 22>   H                      -3.491225            -3.035285            4.130311
| 23> *
| 24>
| 25> #Run DFT-D3 single point of the molecule with dimer basis set
| 26> $new_job
| 27> %base "11-13_DFT_A"
| 28> ! wB97X-D3 def2-TZVP TIGHTSCF CHELPG PMODEL
| 29>
| 30> %scf
| 31> MaxIter 1000
| 32> end
| 33>
| 34> * xyz 0 1
| 35>   C                      -9.588072            -1.444471            5.461368
| 36>   O                      -10.403230           -2.633637            5.367968
| 37>   H                      -11.278415           -2.425012            5.028035
| 38>   H                      -9.139766            -1.218325            4.490122
| 39>   H                      -10.162974           -0.559693            5.727943
| 40>   H                      -8.740249            -1.545357            6.116138
| 41>   C                    : -4.262804            -3.298811            4.931557
| 42>   O                    : -3.864564            -2.942529            6.210114
| 43>   H                    : -2.899731            -2.834253            6.123950
| 44>   H                    : -4.286093            -4.428996            4.908977
| 45>   H                    : -5.227939            -2.841040            4.620827
| 46>   H                    : -3.491225            -3.035285            4.130311
| 47> *
| 48>
| 49> #Run DFT-D3 single point of the particle with dimer basis set
| 50> $new_job
| 51> %base "11-13_DFT_B"
| 52> ! wB97X-D3 def2-TZVP TIGHTSCF CHELPG PMODEL
| 53>
| 54> %scf
| 55> MaxIter 1000
| 56> end
| 57>
| 58> * xyz 0 1
| 59>   C                    : -9.588072            -1.444471            5.461368
| 60>   O                    : -10.403230           -2.633637            5.367968
| 61>   H                    : -11.278415           -2.425012            5.028035
| 62>   H                    : -9.139766            -1.218325            4.490122
| 63>   H                    : -10.162974           -0.559693            5.727943
| 64>   H                    : -8.740249            -1.545357            6.116138
| 65>   C                      -4.262804            -3.298811            4.931557
| 66>   O                      -3.864564            -2.942529            6.210114
| 67>   H                      -2.899731            -2.834253            6.123950
| 68>   H                      -4.286093            -4.428996            4.908977
| 69>   H                      -5.227939            -2.841040            4.620827
| 70>   H                      -3.491225            -3.035285            4.130311
| 71> *
| 72>
| 73>                          ****END OF INPUT****
 Total Charge           Charge          ....    0
 Multiplicity           Mult            ....    1
 Number of Electrons    NEL             ....   36
Dispersion correction           -0.000656747
FINAL SINGLE POINT ENERGY      -231.463626258305
Dispersion correction           -0.000263343
FINAL SINGLE POINT ENERGY      -115.733650891565

CARTESIAN COORDINATES (ANGSTROEM)
---------------------------------
  C     -9.588072   -1.444471    5.461368
  O    -10.403230   -2.633637    5.367968
  H    -11.278415   -2.425012    5.028035
  H     -9.139766   -1.218325    4.490122
  H    -10.162974   -0.559693    5.727943
  H     -8.740249   -1.545357    6.116138
  C     -4.262804   -3.298811    4.931557
  O     -3.864564   -2.942529    6.210114
  H     -2.899731   -2.834253    6.123950
  H     -4.286093   -4.428996    4.908977
  H     -5.227939   -2.841040    4.620827
  H     -3.491225   -3.035285    4.130311

 Multiplicity           Mult            ....    1
 Number of Electrons    NEL             ....   18
 Basis Dimension        Dim             ....  172

ORBITAL ENERGIES
----------------

  NO   OCC          E(Eh)            E(eV)
   0   2.0000     -19.233830      -523.3791
   1   2.0000     -10.321726      -280.8684
   2   2.0000      -1.147442       -31.2235
   3   2.0000      -0.782534       -21.2938
   4   2.0000      -0.614393       -16.7185
   5   2.0000      -0.545499       -14.8438
   6   2.0000      -0.523628       -14.2486
   7   2.0000      -0.433241       -11.7891
   8   2.0000      -0.369541       -10.0557
   9   0.0000       0.087079         2.3696
  10   0.0000       0.108631         2.9560
  11   0.0000       0.148413         4.0385
  12   0.0000       0.166171         4.5217
  13   0.0000       0.187765         5.1093

MULLIKEN ATOMIC CHARGES
-----------------------
   0 C :   -0.000104
   1 O :    0.000002
   2 H :   -0.000000
   3 H :   -0.000016
   4 H :    0.000001
   5 H :    0.000085
   6 C :   -0.180476
   7 O :   -0.452634
   8 H :    0.320953
   9 H :    0.099234
  10 H :    0.115560
  11 H :    0.097393
Sum of atomic charges:   -0.0000000

LOEWDIN ATOMIC CHARGES
----------------------
   0 C :   -0.000065
   1 O :   -0.000001
   2 H :   -0.000000
   3 H :   -0.000028
   4 H :   -0.000000
   5 H :   -0.000019
   6 C :   -0.425768
   7 O :   -0.064548
   8 H :    0.185068
   9 H :    0.100033
  10 H :    0.105423
  11 H :    0.099904

  Mayer bond orders larger than 0.1
B(  6-C ,  7-O ) :   1.0110 B(  6-C ,  9-H ) :   0.9768 B(  6-C , 10-H ) :   0.9679
B(  6-C , 11-H ) :   0.9822 B(  7-O ,  8-H ) :   0.8964

Dispersion correction           -0.000233823
FINAL SINGLE POINT ENERGY      -115.729788475589

DIPOLE MOMENT
-------------
                                X             Y             Z
Electronic contribution:      0.27873       0.58145       1.82584
Nuclear contribution   :      0.19625      -0.61932      -2.33886
                        -----------------------------------------
Total Dipole Moment    :      0.47498      -0.03788      -0.51302
                        -----------------------------------------
Magnitude (a.u.)       :      0.70016
Magnitude (Debye)      :      1.77967

Rotational constants in cm-1:     4.029560     0.856789     0.823632
Rotational constants in MHz : 120803.159768 25685.890346 24691.865332

                             ****ORCA TERMINATED NORMALLY****
TOTAL RUN TIME: 0 days 0 hours 1 minutes 10 seconds 91 msec
