                         Program Version 4.1.2  - RELEASE  -
|  1> #Run DFT-D3 single point of the dimer
|  2> ! wB97X-D3 def2-TZVP TIGHTSCF CHELPG PMODEL PAL8
|  3>
|  4> %base "13-172_DFT_AB"
|  5>
|  6> %scf
|  7> MaxIter 1000
|  8> end
|  9>
| 10> * xyz 0 1
| 11>   C                      7.836181             7.529676             0.058781
| 12>   O                      7.949878             8.883040             0.619364
| 13>   H                      7.217825             9.387910             0.332448
| 14>   H                      7.332988             7.589105             -0.945049
| 15>   H                      8.811352             6.978332             0.054858
| 16>   H                      7.241459             6.823541             0.671581
| 17>   C                      6.917700             10.839953            3.191765
| 18>   O                      8.271262             10.653788            2.776351
| 19>   H                      8.399532             9.792571             2.456028
| 20>   H                      6.803520             11.005091            4.247233
| 21>   H                      6.668160             11.836343            2.849223
| 22>   H                      6.233742             10.158601            2.671462
| 23> *
| 24>
| 25> #Run DFT-D3 single point of the molecule with dimer basis set
| 26> $new_job
| 27> %base "13-172_DFT_A"
| 28> ! wB97X-D3 def2-TZVP TIGHTSCF CHELPG PMODEL
| 29>
| 30> %scf
| 31> MaxIter 1000
| 32> end
| 33>
| 34> * xyz 0 1
| 35>   C                      7.836181             7.529676             0.058781
| 36>   O                      7.949878             8.883040             0.619364
| 37>   H                      7.217825             9.387910             0.332448
| 38>   H                      7.332988             7.589105             -0.945049
| 39>   H                      8.811352             6.978332             0.054858
| 40>   H                      7.241459             6.823541             0.671581
| 41>   C                    : 6.917700             10.839953            3.191765
| 42>   O                    : 8.271262             10.653788            2.776351
| 43>   H                    : 8.399532             9.792571             2.456028
| 44>   H                    : 6.803520             11.005091            4.247233
| 45>   H                    : 6.668160             11.836343            2.849223
| 46>   H                    : 6.233742             10.158601            2.671462
| 47> *
| 48>
| 49> #Run DFT-D3 single point of the particle with dimer basis set
| 50> $new_job
| 51> %base "13-172_DFT_B"
| 52> ! wB97X-D3 def2-TZVP TIGHTSCF CHELPG PMODEL
| 53>
| 54> %scf
| 55> MaxIter 1000
| 56> end
| 57>
| 58> * xyz 0 1
| 59>   C                    : 7.836181             7.529676             0.058781
| 60>   O                    : 7.949878             8.883040             0.619364
| 61>   H                    : 7.217825             9.387910             0.332448
| 62>   H                    : 7.332988             7.589105             -0.945049
| 63>   H                    : 8.811352             6.978332             0.054858
| 64>   H                    : 7.241459             6.823541             0.671581
| 65>   C                      6.917700             10.839953            3.191765
| 66>   O                      8.271262             10.653788            2.776351
| 67>   H                      8.399532             9.792571             2.456028
| 68>   H                      6.803520             11.005091            4.247233
| 69>   H                      6.668160             11.836343            2.849223
| 70>   H                      6.233742             10.158601            2.671462
| 71> *
| 72>
| 73>                          ****END OF INPUT****
 Total Charge           Charge          ....    0
 Multiplicity           Mult            ....    1
 Number of Electrons    NEL             ....   36
Dispersion correction           -0.001792565
FINAL SINGLE POINT ENERGY      -231.463725704822
Dispersion correction           -0.000284559
FINAL SINGLE POINT ENERGY      -115.729515649086

CARTESIAN COORDINATES (ANGSTROEM)
---------------------------------
  C      7.836181    7.529676    0.058781
  O      7.949878    8.883040    0.619364
  H      7.217825    9.387910    0.332448
  H      7.332988    7.589105   -0.945049
  H      8.811352    6.978332    0.054858
  H      7.241459    6.823541    0.671581
  C      6.917700   10.839953    3.191765
  O      8.271262   10.653788    2.776351
  H      8.399532    9.792571    2.456028
  H      6.803520   11.005091    4.247233
  H      6.668160   11.836343    2.849223
  H      6.233742   10.158601    2.671462

 Multiplicity           Mult            ....    1
 Number of Electrons    NEL             ....   18
 Basis Dimension        Dim             ....  172

ORBITAL ENERGIES
----------------

  NO   OCC          E(Eh)            E(eV)
   0   2.0000     -19.226144      -523.1700
   1   2.0000     -10.311519      -280.5907
   2   2.0000      -1.136498       -30.9257
   3   2.0000      -0.804302       -21.8862
   4   2.0000      -0.610574       -16.6146
   5   2.0000      -0.550035       -14.9672
   6   2.0000      -0.522502       -14.2180
   7   2.0000      -0.434555       -11.8248
   8   2.0000      -0.371737       -10.1155
   9   0.0000       0.072721         1.9788
  10   0.0000       0.131201         3.5701
  11   0.0000       0.149892         4.0788
  12   0.0000       0.171585         4.6691
  13   0.0000       0.188322         5.1245

MULLIKEN ATOMIC CHARGES
-----------------------
   0 C :   -0.001682
   1 O :   -0.008172
   2 H :   -0.000930
   3 H :    0.000030
   4 H :    0.000125
   5 H :    0.000009
   6 C :   -0.163744
   7 O :   -0.468970
   8 H :    0.308894
   9 H :    0.115598
  10 H :    0.108909
  11 H :    0.109934
Sum of atomic charges:   -0.0000000

LOEWDIN ATOMIC CHARGES
----------------------
   0 C :   -0.001300
   1 O :   -0.017395
   2 H :   -0.003899
   3 H :   -0.000035
   4 H :   -0.000029
   5 H :   -0.000041
   6 C :   -0.369751
   7 O :   -0.058004
   8 H :    0.146761
   9 H :    0.097202
  10 H :    0.105077
  11 H :    0.101414

  Mayer bond orders larger than 0.1
B(  6-C ,  7-O ) :   0.9950 B(  6-C ,  9-H ) :   0.9767 B(  6-C , 10-H ) :   0.9821
B(  6-C , 11-H ) :   0.9782 B(  7-O ,  8-H ) :   0.9106

Dispersion correction           -0.000253021
FINAL SINGLE POINT ENERGY      -115.729275590108

DIPOLE MOMENT
-------------
                                X             Y             Z
Electronic contribution:      1.68546      -0.32457      -0.37800
Nuclear contribution   :     -2.17039      -0.11746       0.33015
                        -----------------------------------------
Total Dipole Moment    :     -0.48493      -0.44203      -0.04785
                        -----------------------------------------
Magnitude (a.u.)       :      0.65790
Magnitude (Debye)      :      1.67225

Rotational constants in cm-1:     4.439620     0.825633     0.787681
Rotational constants in MHz : 133096.455908 24751.840072 23614.080334

                             ****ORCA TERMINATED NORMALLY****
TOTAL RUN TIME: 0 days 0 hours 1 minutes 13 seconds 417 msec
