                         Program Version 4.1.2  - RELEASE  -
|  1> #Run DFT-D3 single point of the dimer
|  2> ! wB97X-D3 def2-TZVP TIGHTSCF CHELPG PMODEL PAL8
|  3>
|  4> %base "20-182_DFT_AB"
|  5>
|  6> %scf
|  7> MaxIter 1000
|  8> end
|  9>
| 10> * xyz 0 1
| 11>   C                      -1.391945            3.297520             -7.878447
| 12>   O                      -1.548555            4.014057             -9.007819
| 13>   H                      -2.491489            4.133702             -9.258821
| 14>   H                      -1.953114            3.750853             -7.007505
| 15>   H                      -1.819787            2.295117             -8.033450
| 16>   H                      -0.295701            3.124531             -7.632486
| 17>   C                      -2.640541            0.829549             -10.356029
| 18>   O                      -3.382298            1.832271             -10.972147
| 19>   H                      -2.802487            2.539130             -11.278118
| 20>   H                      -2.226809            0.121991             -11.096118
| 21>   H                      -1.775766            1.282325             -9.850746
| 22>   H                      -3.261187            0.205242             -9.647087
| 23> *
| 24>
| 25> #Run DFT-D3 single point of the molecule with dimer basis set
| 26> $new_job
| 27> %base "20-182_DFT_A"
| 28> ! wB97X-D3 def2-TZVP TIGHTSCF CHELPG PMODEL
| 29>
| 30> %scf
| 31> MaxIter 1000
| 32> end
| 33>
| 34> * xyz 0 1
| 35>   C                      -1.391945            3.297520             -7.878447
| 36>   O                      -1.548555            4.014057             -9.007819
| 37>   H                      -2.491489            4.133702             -9.258821
| 38>   H                      -1.953114            3.750853             -7.007505
| 39>   H                      -1.819787            2.295117             -8.033450
| 40>   H                      -0.295701            3.124531             -7.632486
| 41>   C                    : -2.640541            0.829549             -10.356029
| 42>   O                    : -3.382298            1.832271             -10.972147
| 43>   H                    : -2.802487            2.539130             -11.278118
| 44>   H                    : -2.226809            0.121991             -11.096118
| 45>   H                    : -1.775766            1.282325             -9.850746
| 46>   H                    : -3.261187            0.205242             -9.647087
| 47> *
| 48>
| 49> #Run DFT-D3 single point of the particle with dimer basis set
| 50> $new_job
| 51> %base "20-182_DFT_B"
| 52> ! wB97X-D3 def2-TZVP TIGHTSCF CHELPG PMODEL
| 53>
| 54> %scf
| 55> MaxIter 1000
| 56> end
| 57>
| 58> * xyz 0 1
| 59>   C                    : -1.391945            3.297520             -7.878447
| 60>   O                    : -1.548555            4.014057             -9.007819
| 61>   H                    : -2.491489            4.133702             -9.258821
| 62>   H                    : -1.953114            3.750853             -7.007505
| 63>   H                    : -1.819787            2.295117             -8.033450
| 64>   H                    : -0.295701            3.124531             -7.632486
| 65>   C                      -2.640541            0.829549             -10.356029
| 66>   O                      -3.382298            1.832271             -10.972147
| 67>   H                      -2.802487            2.539130             -11.278118
| 68>   H                      -2.226809            0.121991             -11.096118
| 69>   H                      -1.775766            1.282325             -9.850746
| 70>   H                      -3.261187            0.205242             -9.647087
| 71> *
| 72>
| 73>                          ****END OF INPUT****
 Total Charge           Charge          ....    0
 Multiplicity           Mult            ....    1
 Number of Electrons    NEL             ....   36
Dispersion correction           -0.002200159
FINAL SINGLE POINT ENERGY      -231.468330569332
Dispersion correction           -0.000227729
FINAL SINGLE POINT ENERGY      -115.730542896684

CARTESIAN COORDINATES (ANGSTROEM)
---------------------------------
  C     -1.391945    3.297520   -7.878447
  O     -1.548555    4.014057   -9.007819
  H     -2.491489    4.133702   -9.258821
  H     -1.953114    3.750853   -7.007505
  H     -1.819787    2.295117   -8.033450
  H     -0.295701    3.124531   -7.632486
  C     -2.640541    0.829549  -10.356029
  O     -3.382298    1.832271  -10.972147
  H     -2.802487    2.539130  -11.278118
  H     -2.226809    0.121991  -11.096118
  H     -1.775766    1.282325   -9.850746
  H     -3.261187    0.205242   -9.647087

 Multiplicity           Mult            ....    1
 Number of Electrons    NEL             ....   18
 Basis Dimension        Dim             ....  172

ORBITAL ENERGIES
----------------

  NO   OCC          E(Eh)            E(eV)
   0   2.0000     -19.230327      -523.2838
   1   2.0000     -10.317442      -280.7519
   2   2.0000      -1.142154       -31.0796
   3   2.0000      -0.791139       -21.5280
   4   2.0000      -0.616306       -16.7705
   5   2.0000      -0.540193       -14.6994
   6   2.0000      -0.531230       -14.4555
   7   2.0000      -0.429479       -11.6867
   8   2.0000      -0.369685       -10.0596
   9   0.0000       0.081305         2.2124
  10   0.0000       0.125666         3.4195
  11   0.0000       0.149684         4.0731
  12   0.0000       0.175562         4.7773
  13   0.0000       0.195675         5.3246

MULLIKEN ATOMIC CHARGES
-----------------------
   0 C :    0.003767
   1 O :   -0.000842
   2 H :   -0.004898
   3 H :   -0.000049
   4 H :   -0.001665
   5 H :   -0.000445
   6 C :   -0.152658
   7 O :   -0.471139
   8 H :    0.319087
   9 H :    0.101321
  10 H :    0.095462
  11 H :    0.112059
Sum of atomic charges:    0.0000000

LOEWDIN ATOMIC CHARGES
----------------------
   0 C :   -0.007599
   1 O :   -0.001695
   2 H :   -0.004649
   3 H :   -0.000059
   4 H :   -0.008393
   5 H :   -0.000186
   6 C :   -0.400251
   7 O :   -0.059680
   8 H :    0.173504
   9 H :    0.093790
  10 H :    0.101192
  11 H :    0.114027

  Mayer bond orders larger than 0.1
B(  6-C ,  7-O ) :   1.0025 B(  6-C ,  9-H ) :   0.9751 B(  6-C , 10-H ) :   0.9844
B(  6-C , 11-H ) :   0.9712 B(  7-O ,  8-H ) :   0.8943

Dispersion correction           -0.000238800
FINAL SINGLE POINT ENERGY      -115.734434978347

DIPOLE MOMENT
-------------
                                X             Y             Z
Electronic contribution:     -1.12890       1.26388      -0.74496
Nuclear contribution   :      1.79087      -1.19073       0.78274
                        -----------------------------------------
Total Dipole Moment    :      0.66197       0.07315       0.03777
                        -----------------------------------------
Magnitude (a.u.)       :      0.66707
Magnitude (Debye)      :      1.69555

Rotational constants in cm-1:     4.226605     0.850064     0.812401
Rotational constants in MHz : 126710.416482 25484.269559 24355.178838

                             ****ORCA TERMINATED NORMALLY****
TOTAL RUN TIME: 0 days 0 hours 1 minutes 10 seconds 723 msec
