                         Program Version 4.1.2  - RELEASE  -
|  1> #Run DFT-D3 single point of the dimer
|  2> ! wB97X-D3 def2-TZVP TIGHTSCF CHELPG PMODEL PAL8
|  3>
|  4> %base "19-150_DFT_AB"
|  5>
|  6> %scf
|  7> MaxIter 1000
|  8> end
|  9>
| 10> * xyz 0 1
| 11>   C                      4.624367             -2.918903            -10.400656
| 12>   O                      4.666448             -4.346803            -10.500811
| 13>   H                      5.472379             -4.610358            -10.966111
| 14>   H                      5.131493             -2.599970            -9.510842
| 15>   H                      5.226740             -2.416390            -11.246797
| 16>   H                      3.548281             -2.575049            -10.400635
| 17>   C                      7.675457             -6.336189            -10.603416
| 18>   O                      7.603533             -5.665192            -11.832627
| 19>   H                      7.495016             -6.340691            -12.531110
| 20>   H                      7.650247             -5.677263            -9.801544
| 21>   H                      6.791720             -7.005691            -10.409281
| 22>   H                      8.584671             -6.856974            -10.471076
| 23> *
| 24>
| 25> #Run DFT-D3 single point of the molecule with dimer basis set
| 26> $new_job
| 27> %base "19-150_DFT_A"
| 28> ! wB97X-D3 def2-TZVP TIGHTSCF CHELPG PMODEL
| 29>
| 30> %scf
| 31> MaxIter 1000
| 32> end
| 33>
| 34> * xyz 0 1
| 35>   C                      4.624367             -2.918903            -10.400656
| 36>   O                      4.666448             -4.346803            -10.500811
| 37>   H                      5.472379             -4.610358            -10.966111
| 38>   H                      5.131493             -2.599970            -9.510842
| 39>   H                      5.226740             -2.416390            -11.246797
| 40>   H                      3.548281             -2.575049            -10.400635
| 41>   C                    : 7.675457             -6.336189            -10.603416
| 42>   O                    : 7.603533             -5.665192            -11.832627
| 43>   H                    : 7.495016             -6.340691            -12.531110
| 44>   H                    : 7.650247             -5.677263            -9.801544
| 45>   H                    : 6.791720             -7.005691            -10.409281
| 46>   H                    : 8.584671             -6.856974            -10.471076
| 47> *
| 48>
| 49> #Run DFT-D3 single point of the particle with dimer basis set
| 50> $new_job
| 51> %base "19-150_DFT_B"
| 52> ! wB97X-D3 def2-TZVP TIGHTSCF CHELPG PMODEL
| 53>
| 54> %scf
| 55> MaxIter 1000
| 56> end
| 57>
| 58> * xyz 0 1
| 59>   C                    : 4.624367             -2.918903            -10.400656
| 60>   O                    : 4.666448             -4.346803            -10.500811
| 61>   H                    : 5.472379             -4.610358            -10.966111
| 62>   H                    : 5.131493             -2.599970            -9.510842
| 63>   H                    : 5.226740             -2.416390            -11.246797
| 64>   H                    : 3.548281             -2.575049            -10.400635
| 65>   C                      7.675457             -6.336189            -10.603416
| 66>   O                      7.603533             -5.665192            -11.832627
| 67>   H                      7.495016             -6.340691            -12.531110
| 68>   H                      7.650247             -5.677263            -9.801544
| 69>   H                      6.791720             -7.005691            -10.409281
| 70>   H                      8.584671             -6.856974            -10.471076
| 71> *
| 72>
| 73>                          ****END OF INPUT****
 Total Charge           Charge          ....    0
 Multiplicity           Mult            ....    1
 Number of Electrons    NEL             ....   36
Dispersion correction           -0.001681796
FINAL SINGLE POINT ENERGY      -231.470597111786
Dispersion correction           -0.000259196
FINAL SINGLE POINT ENERGY      -115.732574698082

CARTESIAN COORDINATES (ANGSTROEM)
---------------------------------
  C      4.624367   -2.918903  -10.400656
  O      4.666448   -4.346803  -10.500811
  H      5.472379   -4.610358  -10.966111
  H      5.131493   -2.599970   -9.510842
  H      5.226740   -2.416390  -11.246797
  H      3.548281   -2.575049  -10.400635
  C      7.675457   -6.336189  -10.603416
  O      7.603533   -5.665192  -11.832627
  H      7.495016   -6.340691  -12.531110
  H      7.650247   -5.677263   -9.801544
  H      6.791720   -7.005691  -10.409281
  H      8.584671   -6.856974  -10.471076

 Multiplicity           Mult            ....    1
 Number of Electrons    NEL             ....   18
 Basis Dimension        Dim             ....  172

ORBITAL ENERGIES
----------------

  NO   OCC          E(Eh)            E(eV)
   0   2.0000     -19.233315      -523.3651
   1   2.0000     -10.304616      -280.4029
   2   2.0000      -1.137042       -30.9405
   3   2.0000      -0.801525       -21.8106
   4   2.0000      -0.609348       -16.5812
   5   2.0000      -0.547229       -14.8909
   6   2.0000      -0.533456       -14.5161
   7   2.0000      -0.430523       -11.7151
   8   2.0000      -0.375679       -10.2227
   9   0.0000       0.093518         2.5447
  10   0.0000       0.119085         3.2405
  11   0.0000       0.151474         4.1218
  12   0.0000       0.190754         5.1907
  13   0.0000       0.191700         5.2164

MULLIKEN ATOMIC CHARGES
-----------------------
   0 C :    0.000264
   1 O :   -0.000912
   2 H :   -0.001522
   3 H :   -0.000043
   4 H :   -0.000495
   5 H :   -0.000025
   6 C :   -0.170351
   7 O :   -0.476908
   8 H :    0.318137
   9 H :    0.118987
  10 H :    0.099651
  11 H :    0.113217
Sum of atomic charges:   -0.0000000

LOEWDIN ATOMIC CHARGES
----------------------
   0 C :   -0.000291
   1 O :   -0.000747
   2 H :   -0.011319
   3 H :   -0.000023
   4 H :   -0.000137
   5 H :   -0.000002
   6 C :   -0.392285
   7 O :   -0.065762
   8 H :    0.181981
   9 H :    0.096558
  10 H :    0.102717
  11 H :    0.089312

  Mayer bond orders larger than 0.1
B(  6-C ,  7-O ) :   0.9904 B(  6-C ,  9-H ) :   0.9776 B(  6-C , 10-H ) :   0.9812
B(  6-C , 11-H ) :   0.9738 B(  7-O ,  8-H ) :   0.8954

Dispersion correction           -0.000239456
FINAL SINGLE POINT ENERGY      -115.732288911084

DIPOLE MOMENT
-------------
                                X             Y             Z
Electronic contribution:     -0.00469       1.02640      -1.57293
Nuclear contribution   :     -0.01344      -1.69155       1.63897
                        -----------------------------------------
Total Dipole Moment    :     -0.01814      -0.66515       0.06604
                        -----------------------------------------
Magnitude (a.u.)       :      0.66867
Magnitude (Debye)      :      1.69963

Rotational constants in cm-1:     4.480445     0.835131     0.812547
Rotational constants in MHz : 134320.370961 25036.608603 24359.544812

                             ****ORCA TERMINATED NORMALLY****
TOTAL RUN TIME: 0 days 0 hours 1 minutes 37 seconds 608 msec
