                         Program Version 4.1.2  - RELEASE  -
|  1> #Run DFT-D3 single point of the dimer
|  2> ! wB97X-D3 def2-TZVP TIGHTSCF CHELPG PMODEL PAL8
|  3>
|  4> %base "14-17_DFT_AB"
|  5>
|  6> %scf
|  7> MaxIter 1000
|  8> end
|  9>
| 10> * xyz 0 1
| 11>   C                      -9.672709            4.006744             2.552932
| 12>   O                      -10.300829           4.988320             3.368327
| 13>   H                      -10.582800           4.429678             4.110281
| 14>   H                      -10.532027           3.583830             1.937451
| 15>   H                      -9.091793            4.425824             1.762786
| 16>   H                      -9.184682            3.240365             3.147805
| 17>   C                      -6.014238            7.072502             2.361991
| 18>   O                      -6.223887            8.258419             1.706351
| 19>   H                      -6.623164            8.010038             0.897433
| 20>   H                      -5.496970            7.270082             3.295492
| 21>   H                      -6.945831            6.523959             2.467177
| 22>   H                      -5.412304            6.397185             1.786378
| 23> *
| 24>
| 25> #Run DFT-D3 single point of the molecule with dimer basis set
| 26> $new_job
| 27> %base "14-17_DFT_A"
| 28> ! wB97X-D3 def2-TZVP TIGHTSCF CHELPG PMODEL
| 29>
| 30> %scf
| 31> MaxIter 1000
| 32> end
| 33>
| 34> * xyz 0 1
| 35>   C                      -9.672709            4.006744             2.552932
| 36>   O                      -10.300829           4.988320             3.368327
| 37>   H                      -10.582800           4.429678             4.110281
| 38>   H                      -10.532027           3.583830             1.937451
| 39>   H                      -9.091793            4.425824             1.762786
| 40>   H                      -9.184682            3.240365             3.147805
| 41>   C                    : -6.014238            7.072502             2.361991
| 42>   O                    : -6.223887            8.258419             1.706351
| 43>   H                    : -6.623164            8.010038             0.897433
| 44>   H                    : -5.496970            7.270082             3.295492
| 45>   H                    : -6.945831            6.523959             2.467177
| 46>   H                    : -5.412304            6.397185             1.786378
| 47> *
| 48>
| 49> #Run DFT-D3 single point of the particle with dimer basis set
| 50> $new_job
| 51> %base "14-17_DFT_B"
| 52> ! wB97X-D3 def2-TZVP TIGHTSCF CHELPG PMODEL
| 53>
| 54> %scf
| 55> MaxIter 1000
| 56> end
| 57>
| 58> * xyz 0 1
| 59>   C                    : -9.672709            4.006744             2.552932
| 60>   O                    : -10.300829           4.988320             3.368327
| 61>   H                    : -10.582800           4.429678             4.110281
| 62>   H                    : -10.532027           3.583830             1.937451
| 63>   H                    : -9.091793            4.425824             1.762786
| 64>   H                    : -9.184682            3.240365             3.147805
| 65>   C                      -6.014238            7.072502             2.361991
| 66>   O                      -6.223887            8.258419             1.706351
| 67>   H                      -6.623164            8.010038             0.897433
| 68>   H                      -5.496970            7.270082             3.295492
| 69>   H                      -6.945831            6.523959             2.467177
| 70>   H                      -5.412304            6.397185             1.786378
| 71> *
| 72>
| 73>                          ****END OF INPUT****
 Total Charge           Charge          ....    0
 Multiplicity           Mult            ....    1
 Number of Electrons    NEL             ....   36
Dispersion correction           -0.000888295
FINAL SINGLE POINT ENERGY      -231.460287906045
Dispersion correction           -0.000215645
FINAL SINGLE POINT ENERGY      -115.727366861885

CARTESIAN COORDINATES (ANGSTROEM)
---------------------------------
  C     -9.672709    4.006744    2.552932
  O    -10.300829    4.988320    3.368327
  H    -10.582800    4.429678    4.110281
  H    -10.532027    3.583830    1.937451
  H     -9.091793    4.425824    1.762786
  H     -9.184682    3.240365    3.147805
  C     -6.014238    7.072502    2.361991
  O     -6.223887    8.258419    1.706351
  H     -6.623164    8.010038    0.897433
  H     -5.496970    7.270082    3.295492
  H     -6.945831    6.523959    2.467177
  H     -5.412304    6.397185    1.786378

 Multiplicity           Mult            ....    1
 Number of Electrons    NEL             ....   18
 Basis Dimension        Dim             ....  172

ORBITAL ENERGIES
----------------

  NO   OCC          E(Eh)            E(eV)
   0   2.0000     -19.227081      -523.1955
   1   2.0000     -10.305213      -280.4191
   2   2.0000      -1.157353       -31.4932
   3   2.0000      -0.796488       -21.6735
   4   2.0000      -0.626862       -17.0578
   5   2.0000      -0.546142       -14.8613
   6   2.0000      -0.532200       -14.4819
   7   2.0000      -0.441690       -12.0190
   8   2.0000      -0.368822       -10.0362
   9   0.0000       0.081158         2.2084
  10   0.0000       0.117229         3.1900
  11   0.0000       0.158637         4.3167
  12   0.0000       0.167537         4.5589
  13   0.0000       0.185715         5.0535

MULLIKEN ATOMIC CHARGES
-----------------------
   0 C :   -0.000444
   1 O :    0.000023
   2 H :   -0.000003
   3 H :   -0.000021
   4 H :   -0.000006
   5 H :    0.000040
   6 C :   -0.157621
   7 O :   -0.457871
   8 H :    0.309676
   9 H :    0.116616
  10 H :    0.095049
  11 H :    0.094562
Sum of atomic charges:   -0.0000000

LOEWDIN ATOMIC CHARGES
----------------------
   0 C :   -0.001186
   1 O :   -0.000047
   2 H :   -0.000007
   3 H :   -0.000014
   4 H :   -0.000726
   5 H :   -0.000024
   6 C :   -0.412309
   7 O :   -0.033207
   8 H :    0.158719
   9 H :    0.108829
  10 H :    0.092518
  11 H :    0.087455

  Mayer bond orders larger than 0.1
B(  6-C ,  7-O ) :   0.9972 B(  6-C ,  9-H ) :   0.9726 B(  6-C , 10-H ) :   0.9826
B(  6-C , 11-H ) :   0.9793 B(  7-O ,  8-H ) :   0.9061

Dispersion correction           -0.000195653
FINAL SINGLE POINT ENERGY      -115.732557466349

DIPOLE MOMENT
-------------
                                X             Y             Z
Electronic contribution:     -0.21085       1.68804      -0.68039
Nuclear contribution   :      0.04595      -2.28610       0.40280
                        -----------------------------------------
Total Dipole Moment    :     -0.16490      -0.59806      -0.27759
                        -----------------------------------------
Magnitude (a.u.)       :      0.67965
Magnitude (Debye)      :      1.72753

Rotational constants in cm-1:     4.363513     0.892129     0.846467
Rotational constants in MHz : 130814.822118 26745.345790 25376.433204

                             ****ORCA TERMINATED NORMALLY****
TOTAL RUN TIME: 0 days 0 hours 1 minutes 5 seconds 502 msec
