                         Program Version 4.1.2  - RELEASE  -
|  1> #Run DFT-D3 single point of the dimer
|  2> ! wB97X-D3 def2-TZVP TIGHTSCF CHELPG PMODEL PAL8
|  3>
|  4> %base "14-51_DFT_AB"
|  5>
|  6> %scf
|  7> MaxIter 1000
|  8> end
|  9>
| 10> * xyz 0 1
| 11>   C                      -3.823675            4.289136             -8.766144
| 12>   O                      -4.377185            5.267155             -9.559197
| 13>   H                      -4.576584            6.000657             -8.961619
| 14>   H                      -2.831440            4.544331             -8.466993
| 15>   H                      -4.245802            4.234392             -7.782589
| 16>   H                      -3.906820            3.308003             -9.284825
| 17>   C                      0.396485             1.545882             -10.724549
| 18>   O                      -0.826474            2.070652             -10.288100
| 19>   H                      -0.568896            2.435322             -9.420965
| 20>   H                      0.355493             1.121078             -11.721559
| 21>   H                      1.248323             2.261888             -10.577302
| 22>   H                      0.667296             0.698376             -10.055047
| 23> *
| 24>
| 25> #Run DFT-D3 single point of the molecule with dimer basis set
| 26> $new_job
| 27> %base "14-51_DFT_A"
| 28> ! wB97X-D3 def2-TZVP TIGHTSCF CHELPG PMODEL
| 29>
| 30> %scf
| 31> MaxIter 1000
| 32> end
| 33>
| 34> * xyz 0 1
| 35>   C                      -3.823675            4.289136             -8.766144
| 36>   O                      -4.377185            5.267155             -9.559197
| 37>   H                      -4.576584            6.000657             -8.961619
| 38>   H                      -2.831440            4.544331             -8.466993
| 39>   H                      -4.245802            4.234392             -7.782589
| 40>   H                      -3.906820            3.308003             -9.284825
| 41>   C                    : 0.396485             1.545882             -10.724549
| 42>   O                    : -0.826474            2.070652             -10.288100
| 43>   H                    : -0.568896            2.435322             -9.420965
| 44>   H                    : 0.355493             1.121078             -11.721559
| 45>   H                    : 1.248323             2.261888             -10.577302
| 46>   H                    : 0.667296             0.698376             -10.055047
| 47> *
| 48>
| 49> #Run DFT-D3 single point of the particle with dimer basis set
| 50> $new_job
| 51> %base "14-51_DFT_B"
| 52> ! wB97X-D3 def2-TZVP TIGHTSCF CHELPG PMODEL
| 53>
| 54> %scf
| 55> MaxIter 1000
| 56> end
| 57>
| 58> * xyz 0 1
| 59>   C                    : -3.823675            4.289136             -8.766144
| 60>   O                    : -4.377185            5.267155             -9.559197
| 61>   H                    : -4.576584            6.000657             -8.961619
| 62>   H                    : -2.831440            4.544331             -8.466993
| 63>   H                    : -4.245802            4.234392             -7.782589
| 64>   H                    : -3.906820            3.308003             -9.284825
| 65>   C                      0.396485             1.545882             -10.724549
| 66>   O                      -0.826474            2.070652             -10.288100
| 67>   H                      -0.568896            2.435322             -9.420965
| 68>   H                      0.355493             1.121078             -11.721559
| 69>   H                      1.248323             2.261888             -10.577302
| 70>   H                      0.667296             0.698376             -10.055047
| 71> *
| 72>
| 73>                          ****END OF INPUT****
 Total Charge           Charge          ....    0
 Multiplicity           Mult            ....    1
 Number of Electrons    NEL             ....   36
Dispersion correction           -0.000960435
FINAL SINGLE POINT ENERGY      -231.461947216628
Dispersion correction           -0.000209828
FINAL SINGLE POINT ENERGY      -115.730013019685

CARTESIAN COORDINATES (ANGSTROEM)
---------------------------------
  C     -3.823675    4.289136   -8.766144
  O     -4.377185    5.267155   -9.559197
  H     -4.576584    6.000657   -8.961619
  H     -2.831440    4.544331   -8.466993
  H     -4.245802    4.234392   -7.782589
  H     -3.906820    3.308003   -9.284825
  C      0.396485    1.545882  -10.724549
  O     -0.826474    2.070652  -10.288100
  H     -0.568896    2.435322   -9.420965
  H      0.355493    1.121078  -11.721559
  H      1.248323    2.261888  -10.577302
  H      0.667296    0.698376  -10.055047

 Multiplicity           Mult            ....    1
 Number of Electrons    NEL             ....   18
 Basis Dimension        Dim             ....  172

ORBITAL ENERGIES
----------------

  NO   OCC          E(Eh)            E(eV)
   0   2.0000     -19.235089      -523.4134
   1   2.0000     -10.316456      -280.7250
   2   2.0000      -1.144125       -31.1332
   3   2.0000      -0.788087       -21.4449
   4   2.0000      -0.613265       -16.6878
   5   2.0000      -0.536599       -14.6016
   6   2.0000      -0.531848       -14.4723
   7   2.0000      -0.444349       -12.0914
   8   2.0000      -0.368523       -10.0280
   9   0.0000       0.087135         2.3711
  10   0.0000       0.114895         3.1264
  11   0.0000       0.151590         4.1250
  12   0.0000       0.182614         4.9692
  13   0.0000       0.193956         5.2778

MULLIKEN ATOMIC CHARGES
-----------------------
   0 C :   -0.000426
   1 O :    0.000081
   2 H :    0.000002
   3 H :   -0.000679
   4 H :   -0.000083
   5 H :   -0.001129
   6 C :   -0.183639
   7 O :   -0.455705
   8 H :    0.319639
   9 H :    0.124592
  10 H :    0.099757
  11 H :    0.097592
Sum of atomic charges:    0.0000000

LOEWDIN ATOMIC CHARGES
----------------------
   0 C :   -0.001320
   1 O :   -0.000011
   2 H :   -0.000001
   3 H :   -0.000440
   4 H :   -0.000021
   5 H :   -0.000887
   6 C :   -0.408719
   7 O :   -0.072845
   8 H :    0.185544
   9 H :    0.105427
  10 H :    0.097706
  11 H :    0.095568

  Mayer bond orders larger than 0.1
B(  6-C ,  7-O ) :   0.9981 B(  6-C ,  9-H ) :   0.9716 B(  6-C , 10-H ) :   0.9753
B(  6-C , 11-H ) :   0.9804 B(  7-O ,  8-H ) :   0.8959

Dispersion correction           -0.000215773
FINAL SINGLE POINT ENERGY      -115.731755287436

DIPOLE MOMENT
-------------
                                X             Y             Z
Electronic contribution:     -1.76631       0.71629       0.25465
Nuclear contribution   :      2.37780      -0.70636       0.10616
                        -----------------------------------------
Total Dipole Moment    :      0.61149       0.00993       0.36082
                        -----------------------------------------
Magnitude (a.u.)       :      0.71008
Magnitude (Debye)      :      1.80487

Rotational constants in cm-1:     4.150434     0.853646     0.811034
Rotational constants in MHz : 124426.891516 25591.678174 24314.196354

                             ****ORCA TERMINATED NORMALLY****
TOTAL RUN TIME: 0 days 0 hours 0 minutes 58 seconds 884 msec
