                         Program Version 4.1.2  - RELEASE  -
|  1> #Run DFT-D3 single point of the dimer
|  2> ! wB97X-D3 def2-TZVP TIGHTSCF CHELPG PMODEL PAL8
|  3>
|  4> %base "5-189_DFT_AB"
|  5>
|  6> %scf
|  7> MaxIter 1000
|  8> end
|  9>
| 10> * xyz 0 1
| 11>   C                      6.084113             -8.611953            1.806768
| 12>   O                      7.327695             -8.626183            2.447015
| 13>   H                      7.478803             -8.353929            3.386143
| 14>   H                      5.727032             -7.640368            1.558098
| 15>   H                      5.902592             -9.304816            1.042302
| 16>   H                      5.355908             -8.998010            2.538191
| 17>   C                      9.972915             -7.685073            0.459403
| 18>   O                      9.593615             -6.860634            1.550641
| 19>   H                      8.854218             -7.338539            1.910346
| 20>   H                      10.720847            -8.414273            0.751041
| 21>   H                      9.034047             -8.157437            0.053867
| 22>   H                      10.279727            -7.073836            -0.428352
| 23> *
| 24>
| 25> #Run DFT-D3 single point of the molecule with dimer basis set
| 26> $new_job
| 27> %base "5-189_DFT_A"
| 28> ! wB97X-D3 def2-TZVP TIGHTSCF CHELPG PMODEL
| 29>
| 30> %scf
| 31> MaxIter 1000
| 32> end
| 33>
| 34> * xyz 0 1
| 35>   C                      6.084113             -8.611953            1.806768
| 36>   O                      7.327695             -8.626183            2.447015
| 37>   H                      7.478803             -8.353929            3.386143
| 38>   H                      5.727032             -7.640368            1.558098
| 39>   H                      5.902592             -9.304816            1.042302
| 40>   H                      5.355908             -8.998010            2.538191
| 41>   C                    : 9.972915             -7.685073            0.459403
| 42>   O                    : 9.593615             -6.860634            1.550641
| 43>   H                    : 8.854218             -7.338539            1.910346
| 44>   H                    : 10.720847            -8.414273            0.751041
| 45>   H                    : 9.034047             -8.157437            0.053867
| 46>   H                    : 10.279727            -7.073836            -0.428352
| 47> *
| 48>
| 49> #Run DFT-D3 single point of the particle with dimer basis set
| 50> $new_job
| 51> %base "5-189_DFT_B"
| 52> ! wB97X-D3 def2-TZVP TIGHTSCF CHELPG PMODEL
| 53>
| 54> %scf
| 55> MaxIter 1000
| 56> end
| 57>
| 58> * xyz 0 1
| 59>   C                    : 6.084113             -8.611953            1.806768
| 60>   O                    : 7.327695             -8.626183            2.447015
| 61>   H                    : 7.478803             -8.353929            3.386143
| 62>   H                    : 5.727032             -7.640368            1.558098
| 63>   H                    : 5.902592             -9.304816            1.042302
| 64>   H                    : 5.355908             -8.998010            2.538191
| 65>   C                      9.972915             -7.685073            0.459403
| 66>   O                      9.593615             -6.860634            1.550641
| 67>   H                      8.854218             -7.338539            1.910346
| 68>   H                      10.720847            -8.414273            0.751041
| 69>   H                      9.034047             -8.157437            0.053867
| 70>   H                      10.279727            -7.073836            -0.428352
| 71> *
| 72>
| 73>                          ****END OF INPUT****
 Total Charge           Charge          ....    0
 Multiplicity           Mult            ....    1
 Number of Electrons    NEL             ....   36
Dispersion correction           -0.001882343
FINAL SINGLE POINT ENERGY      -231.459684767164
Dispersion correction           -0.000265041
FINAL SINGLE POINT ENERGY      -115.719566050214

CARTESIAN COORDINATES (ANGSTROEM)
---------------------------------
  C      6.084113   -8.611953    1.806768
  O      7.327695   -8.626183    2.447015
  H      7.478803   -8.353929    3.386143
  H      5.727032   -7.640368    1.558098
  H      5.902592   -9.304816    1.042302
  H      5.355908   -8.998010    2.538191
  C      9.972915   -7.685073    0.459403
  O      9.593615   -6.860634    1.550641
  H      8.854218   -7.338539    1.910346
  H     10.720847   -8.414273    0.751041
  H      9.034047   -8.157437    0.053867
  H     10.279727   -7.073836   -0.428352

 Multiplicity           Mult            ....    1
 Number of Electrons    NEL             ....   18
 Basis Dimension        Dim             ....  172

ORBITAL ENERGIES
----------------

  NO   OCC          E(Eh)            E(eV)
   0   2.0000     -19.230697      -523.2939
   1   2.0000     -10.319408      -280.8054
   2   2.0000      -1.141077       -31.0503
   3   2.0000      -0.789399       -21.4806
   4   2.0000      -0.607020       -16.5179
   5   2.0000      -0.553532       -15.0624
   6   2.0000      -0.521881       -14.2011
   7   2.0000      -0.428746       -11.6668
   8   2.0000      -0.378560       -10.3011
   9   0.0000       0.067132         1.8267
  10   0.0000       0.134504         3.6600
  11   0.0000       0.140682         3.8282
  12   0.0000       0.170034         4.6269
  13   0.0000       0.187810         5.1106

MULLIKEN ATOMIC CHARGES
-----------------------
   0 C :   -0.000945
   1 O :   -0.002528
   2 H :   -0.000877
   3 H :   -0.000010
   4 H :   -0.000284
   5 H :   -0.000020
   6 C :   -0.178539
   7 O :   -0.459541
   8 H :    0.313456
   9 H :    0.114489
  10 H :    0.097754
  11 H :    0.117045
Sum of atomic charges:   -0.0000000

LOEWDIN ATOMIC CHARGES
----------------------
   0 C :   -0.003126
   1 O :   -0.013509
   2 H :   -0.002819
   3 H :   -0.000244
   4 H :   -0.000154
   5 H :   -0.000049
   6 C :   -0.388081
   7 O :   -0.070423
   8 H :    0.170453
   9 H :    0.094929
  10 H :    0.102470
  11 H :    0.110553

  Mayer bond orders larger than 0.1
B(  6-C ,  7-O ) :   0.9926 B(  6-C ,  9-H ) :   0.9699 B(  6-C , 10-H ) :   0.9873
B(  6-C , 11-H ) :   0.9706 B(  7-O ,  8-H ) :   0.9141

Dispersion correction           -0.000231264
FINAL SINGLE POINT ENERGY      -115.731586260971

DIPOLE MOMENT
-------------
                                X             Y             Z
Electronic contribution:     -0.21712       1.13022       1.45625
Nuclear contribution   :     -0.11405      -1.73854      -1.66839
                        -----------------------------------------
Total Dipole Moment    :     -0.33117      -0.60831      -0.21215
                        -----------------------------------------
Magnitude (a.u.)       :      0.72438
Magnitude (Debye)      :      1.84123

Rotational constants in cm-1:     4.129801     0.827713     0.807909
Rotational constants in MHz : 123808.305751 24814.214782 24220.491640

                             ****ORCA TERMINATED NORMALLY****
TOTAL RUN TIME: 0 days 0 hours 1 minutes 1 seconds 382 msec
