                         Program Version 4.1.2  - RELEASE  -
|  1> #Run DFT-D3 single point of the dimer
|  2> ! wB97X-D3 def2-TZVP TIGHTSCF CHELPG PMODEL PAL8
|  3>
|  4> %base "18-117_DFT_AB"
|  5>
|  6> %scf
|  7> MaxIter 1000
|  8> end
|  9>
| 10> * xyz 0 1
| 11>   C                      1.536306             -11.056976           -5.681817
| 12>   O                      1.443532             -9.917052            -6.467092
| 13>   H                      2.378982             -9.721470            -6.647489
| 14>   H                      0.576598             -11.390417           -5.272839
| 15>   H                      1.904503             -11.918158           -6.229317
| 16>   H                      2.254301             -10.950616           -4.839417
| 17>   C                      -1.330851            -10.705206           -8.468312
| 18>   O                      -0.721877            -9.436088            -8.530991
| 19>   H                      0.125809             -9.412764            -8.041637
| 20>   H                      -1.791851            -10.825773           -7.439621
| 21>   H                      -2.176712            -10.739662           -9.175659
| 22>   H                      -0.641799            -11.506945           -8.705691
| 23> *
| 24>
| 25> #Run DFT-D3 single point of the molecule with dimer basis set
| 26> $new_job
| 27> %base "18-117_DFT_A"
| 28> ! wB97X-D3 def2-TZVP TIGHTSCF CHELPG PMODEL
| 29>
| 30> %scf
| 31> MaxIter 1000
| 32> end
| 33>
| 34> * xyz 0 1
| 35>   C                      1.536306             -11.056976           -5.681817
| 36>   O                      1.443532             -9.917052            -6.467092
| 37>   H                      2.378982             -9.721470            -6.647489
| 38>   H                      0.576598             -11.390417           -5.272839
| 39>   H                      1.904503             -11.918158           -6.229317
| 40>   H                      2.254301             -10.950616           -4.839417
| 41>   C                    : -1.330851            -10.705206           -8.468312
| 42>   O                    : -0.721877            -9.436088            -8.530991
| 43>   H                    : 0.125809             -9.412764            -8.041637
| 44>   H                    : -1.791851            -10.825773           -7.439621
| 45>   H                    : -2.176712            -10.739662           -9.175659
| 46>   H                    : -0.641799            -11.506945           -8.705691
| 47> *
| 48>
| 49> #Run DFT-D3 single point of the particle with dimer basis set
| 50> $new_job
| 51> %base "18-117_DFT_B"
| 52> ! wB97X-D3 def2-TZVP TIGHTSCF CHELPG PMODEL
| 53>
| 54> %scf
| 55> MaxIter 1000
| 56> end
| 57>
| 58> * xyz 0 1
| 59>   C                    : 1.536306             -11.056976           -5.681817
| 60>   O                    : 1.443532             -9.917052            -6.467092
| 61>   H                    : 2.378982             -9.721470            -6.647489
| 62>   H                    : 0.576598             -11.390417           -5.272839
| 63>   H                    : 1.904503             -11.918158           -6.229317
| 64>   H                    : 2.254301             -10.950616           -4.839417
| 65>   C                      -1.330851            -10.705206           -8.468312
| 66>   O                      -0.721877            -9.436088            -8.530991
| 67>   H                      0.125809             -9.412764            -8.041637
| 68>   H                      -1.791851            -10.825773           -7.439621
| 69>   H                      -2.176712            -10.739662           -9.175659
| 70>   H                      -0.641799            -11.506945           -8.705691
| 71> *
| 72>
| 73>                          ****END OF INPUT****
 Total Charge           Charge          ....    0
 Multiplicity           Mult            ....    1
 Number of Electrons    NEL             ....   36
Dispersion correction           -0.001906327
FINAL SINGLE POINT ENERGY      -231.476206352375
Dispersion correction           -0.000221920
FINAL SINGLE POINT ENERGY      -115.733964551322

CARTESIAN COORDINATES (ANGSTROEM)
---------------------------------
  C      1.536306  -11.056976   -5.681817
  O      1.443532   -9.917052   -6.467092
  H      2.378982   -9.721470   -6.647489
  H      0.576598  -11.390417   -5.272839
  H      1.904503  -11.918158   -6.229317
  H      2.254301  -10.950616   -4.839417
  C     -1.330851  -10.705206   -8.468312
  O     -0.721877   -9.436088   -8.530991
  H      0.125809   -9.412764   -8.041637
  H     -1.791851  -10.825773   -7.439621
  H     -2.176712  -10.739662   -9.175659
  H     -0.641799  -11.506945   -8.705691

 Multiplicity           Mult            ....    1
 Number of Electrons    NEL             ....   18
 Basis Dimension        Dim             ....  172

ORBITAL ENERGIES
----------------

  NO   OCC          E(Eh)            E(eV)
   0   2.0000     -19.229580      -523.2635
   1   2.0000     -10.316895      -280.7370
   2   2.0000      -1.131374       -30.7863
   3   2.0000      -0.791922       -21.5493
   4   2.0000      -0.607583       -16.5332
   5   2.0000      -0.541694       -14.7402
   6   2.0000      -0.527782       -14.3617
   7   2.0000      -0.426773       -11.6131
   8   2.0000      -0.370804       -10.0901
   9   0.0000       0.067854         1.8464
  10   0.0000       0.131042         3.5658
  11   0.0000       0.140061         3.8113
  12   0.0000       0.172673         4.6987
  13   0.0000       0.187160         5.0929

MULLIKEN ATOMIC CHARGES
-----------------------
   0 C :    0.000384
   1 O :   -0.003900
   2 H :   -0.000446
   3 H :   -0.000466
   4 H :   -0.000328
   5 H :    0.000032
   6 C :   -0.161461
   7 O :   -0.482373
   8 H :    0.318336
   9 H :    0.098937
  10 H :    0.122585
  11 H :    0.108700
Sum of atomic charges:    0.0000000

LOEWDIN ATOMIC CHARGES
----------------------
   0 C :   -0.002520
   1 O :   -0.014042
   2 H :   -0.001102
   3 H :   -0.000418
   4 H :   -0.000125
   5 H :   -0.000037
   6 C :   -0.391227
   7 O :   -0.079188
   8 H :    0.183455
   9 H :    0.102205
  10 H :    0.110126
  11 H :    0.092872

  Mayer bond orders larger than 0.1
B(  6-C ,  7-O ) :   0.9897 B(  6-C ,  9-H ) :   0.9792 B(  6-C , 10-H ) :   0.9719
B(  6-C , 11-H ) :   0.9738 B(  7-O ,  8-H ) :   0.8981

Dispersion correction           -0.000249375
FINAL SINGLE POINT ENERGY      -115.735125925965

DIPOLE MOMENT
-------------
                                X             Y             Z
Electronic contribution:      0.74398       1.60234      -0.22625
Nuclear contribution   :     -0.44900      -2.09350       0.53553
                        -----------------------------------------
Total Dipole Moment    :      0.29498      -0.49116       0.30928
                        -----------------------------------------
Magnitude (a.u.)       :      0.65108
Magnitude (Debye)      :      1.65492

Rotational constants in cm-1:     4.197648     0.828101     0.803926
Rotational constants in MHz : 125842.325578 24825.847530 24101.105644

                             ****ORCA TERMINATED NORMALLY****
TOTAL RUN TIME: 0 days 0 hours 1 minutes 8 seconds 70 msec
