                         Program Version 4.1.2  - RELEASE  -
|  1> #Run DFT-D3 single point of the dimer
|  2> ! wB97X-D3 def2-TZVP TIGHTSCF CHELPG PMODEL PAL8
|  3>
|  4> %base "8-22_DFT_AB"
|  5>
|  6> %scf
|  7> MaxIter 1000
|  8> end
|  9>
| 10> * xyz 0 1
| 11>   C                      0.003535             -5.877715            10.140912
| 12>   O                      0.318346             -4.605744            10.783172
| 13>   H                      1.007645             -4.757691            11.420423
| 14>   H                      -0.478516            -5.721957            9.157673
| 15>   H                      0.881340             -6.498868            10.075310
| 16>   H                      -0.767575            -6.350094            10.780891
| 17>   C                      4.453299             -7.891015            7.200770
| 18>   O                      5.806999             -8.137532            7.399808
| 19>   H                      6.220994             -8.641215            6.728034
| 20>   H                      4.042633             -8.647299            6.533391
| 21>   H                      3.871545             -7.952245            8.090356
| 22>   H                      4.242423             -6.909423            6.841852
| 23> *
| 24>
| 25> #Run DFT-D3 single point of the molecule with dimer basis set
| 26> $new_job
| 27> %base "8-22_DFT_A"
| 28> ! wB97X-D3 def2-TZVP TIGHTSCF CHELPG PMODEL
| 29>
| 30> %scf
| 31> MaxIter 1000
| 32> end
| 33>
| 34> * xyz 0 1
| 35>   C                      0.003535             -5.877715            10.140912
| 36>   O                      0.318346             -4.605744            10.783172
| 37>   H                      1.007645             -4.757691            11.420423
| 38>   H                      -0.478516            -5.721957            9.157673
| 39>   H                      0.881340             -6.498868            10.075310
| 40>   H                      -0.767575            -6.350094            10.780891
| 41>   C                    : 4.453299             -7.891015            7.200770
| 42>   O                    : 5.806999             -8.137532            7.399808
| 43>   H                    : 6.220994             -8.641215            6.728034
| 44>   H                    : 4.042633             -8.647299            6.533391
| 45>   H                    : 3.871545             -7.952245            8.090356
| 46>   H                    : 4.242423             -6.909423            6.841852
| 47> *
| 48>
| 49> #Run DFT-D3 single point of the particle with dimer basis set
| 50> $new_job
| 51> %base "8-22_DFT_B"
| 52> ! wB97X-D3 def2-TZVP TIGHTSCF CHELPG PMODEL
| 53>
| 54> %scf
| 55> MaxIter 1000
| 56> end
| 57>
| 58> * xyz 0 1
| 59>   C                    : 0.003535             -5.877715            10.140912
| 60>   O                    : 0.318346             -4.605744            10.783172
| 61>   H                    : 1.007645             -4.757691            11.420423
| 62>   H                    : -0.478516            -5.721957            9.157673
| 63>   H                    : 0.881340             -6.498868            10.075310
| 64>   H                    : -0.767575            -6.350094            10.780891
| 65>   C                      4.453299             -7.891015            7.200770
| 66>   O                      5.806999             -8.137532            7.399808
| 67>   H                      6.220994             -8.641215            6.728034
| 68>   H                      4.042633             -8.647299            6.533391
| 69>   H                      3.871545             -7.952245            8.090356
| 70>   H                      4.242423             -6.909423            6.841852
| 71> *
| 72>
| 73>                          ****END OF INPUT****
 Total Charge           Charge          ....    0
 Multiplicity           Mult            ....    1
 Number of Electrons    NEL             ....   36
Dispersion correction           -0.000641447
FINAL SINGLE POINT ENERGY      -231.465402284486
Dispersion correction           -0.000249233
FINAL SINGLE POINT ENERGY      -115.733449806489

CARTESIAN COORDINATES (ANGSTROEM)
---------------------------------
  C      0.003535   -5.877715   10.140912
  O      0.318346   -4.605744   10.783172
  H      1.007645   -4.757691   11.420423
  H     -0.478516   -5.721957    9.157673
  H      0.881340   -6.498868   10.075310
  H     -0.767575   -6.350094   10.780891
  C      4.453299   -7.891015    7.200770
  O      5.806999   -8.137532    7.399808
  H      6.220994   -8.641215    6.728034
  H      4.042633   -8.647299    6.533391
  H      3.871545   -7.952245    8.090356
  H      4.242423   -6.909423    6.841852

 Multiplicity           Mult            ....    1
 Number of Electrons    NEL             ....   18
 Basis Dimension        Dim             ....  172

ORBITAL ENERGIES
----------------

  NO   OCC          E(Eh)            E(eV)
   0   2.0000     -19.224198      -523.1170
   1   2.0000     -10.304808      -280.4081
   2   2.0000      -1.142530       -31.0898
   3   2.0000      -0.805882       -21.9292
   4   2.0000      -0.620029       -16.8719
   5   2.0000      -0.547343       -14.8940
   6   2.0000      -0.536918       -14.6103
   7   2.0000      -0.421651       -11.4737
   8   2.0000      -0.372833       -10.1453
   9   0.0000       0.085557         2.3281
  10   0.0000       0.118331         3.2199
  11   0.0000       0.146964         3.9991
  12   0.0000       0.165280         4.4975
  13   0.0000       0.190965         5.1964

MULLIKEN ATOMIC CHARGES
-----------------------
   0 C :    0.000010
   1 O :    0.000000
   2 H :   -0.000001
   3 H :   -0.000001
   4 H :   -0.000065
   5 H :    0.000000
   6 C :   -0.145219
   7 O :   -0.483855
   8 H :    0.318650
   9 H :    0.099145
  10 H :    0.112469
  11 H :    0.098866
Sum of atomic charges:   -0.0000000

LOEWDIN ATOMIC CHARGES
----------------------
   0 C :   -0.000021
   1 O :   -0.000001
   2 H :   -0.000000
   3 H :   -0.000001
   4 H :   -0.000107
   5 H :   -0.000000
   6 C :   -0.390199
   7 O :   -0.050308
   8 H :    0.154382
   9 H :    0.097419
  10 H :    0.098552
  11 H :    0.090284

  Mayer bond orders larger than 0.1
B(  6-C ,  7-O ) :   1.0097 B(  6-C ,  9-H ) :   0.9910 B(  6-C , 10-H ) :   0.9746
B(  6-C , 11-H ) :   0.9764 B(  7-O ,  8-H ) :   0.8980

Dispersion correction           -0.000242651
FINAL SINGLE POINT ENERGY      -115.731781246127

DIPOLE MOMENT
-------------
                                X             Y             Z
Electronic contribution:      1.78252      -0.23391       0.34602
Nuclear contribution   :     -2.06389      -0.02033      -0.87102
                        -----------------------------------------
Total Dipole Moment    :     -0.28138      -0.25423      -0.52500
                        -----------------------------------------
Magnitude (a.u.)       :      0.64764
Magnitude (Debye)      :      1.64616

Rotational constants in cm-1:     4.653472     0.846541     0.817027
Rotational constants in MHz : 139507.587148 25378.667193 24493.852294

                             ****ORCA TERMINATED NORMALLY****
TOTAL RUN TIME: 0 days 0 hours 0 minutes 38 seconds 987 msec
