                         Program Version 4.1.2  - RELEASE  -
|  1> #Run DFT-D3 single point of the dimer
|  2> ! wB97X-D3 def2-TZVP TIGHTSCF CHELPG PMODEL PAL8
|  3>
|  4> %base "9-171_DFT_AB"
|  5>
|  6> %scf
|  7> MaxIter 1000
|  8> end
|  9>
| 10> * xyz 0 1
| 11>   C                      10.274794            1.349854             7.103478
| 12>   O                      9.951728             2.099738             5.955266
| 13>   H                      10.821895            2.248391             5.526415
| 14>   H                      9.349085             0.884733             7.513064
| 15>   H                      10.919765            0.513887             6.798350
| 16>   H                      10.756156            2.010272             7.895772
| 17>   C                      7.234744             1.137100             3.646333
| 18>   O                      8.644821             1.312440             3.660855
| 19>   H                      8.815920             1.757779             4.445385
| 20>   H                      6.947070             0.669658             2.727372
| 21>   H                      6.962892             0.448695             4.396575
| 22>   H                      6.738247             2.099635             3.923597
| 23> *
| 24>
| 25> #Run DFT-D3 single point of the molecule with dimer basis set
| 26> $new_job
| 27> %base "9-171_DFT_A"
| 28> ! wB97X-D3 def2-TZVP TIGHTSCF CHELPG PMODEL
| 29>
| 30> %scf
| 31> MaxIter 1000
| 32> end
| 33>
| 34> * xyz 0 1
| 35>   C                      10.274794            1.349854             7.103478
| 36>   O                      9.951728             2.099738             5.955266
| 37>   H                      10.821895            2.248391             5.526415
| 38>   H                      9.349085             0.884733             7.513064
| 39>   H                      10.919765            0.513887             6.798350
| 40>   H                      10.756156            2.010272             7.895772
| 41>   C                    : 7.234744             1.137100             3.646333
| 42>   O                    : 8.644821             1.312440             3.660855
| 43>   H                    : 8.815920             1.757779             4.445385
| 44>   H                    : 6.947070             0.669658             2.727372
| 45>   H                    : 6.962892             0.448695             4.396575
| 46>   H                    : 6.738247             2.099635             3.923597
| 47> *
| 48>
| 49> #Run DFT-D3 single point of the particle with dimer basis set
| 50> $new_job
| 51> %base "9-171_DFT_B"
| 52> ! wB97X-D3 def2-TZVP TIGHTSCF CHELPG PMODEL
| 53>
| 54> %scf
| 55> MaxIter 1000
| 56> end
| 57>
| 58> * xyz 0 1
| 59>   C                    : 10.274794            1.349854             7.103478
| 60>   O                    : 9.951728             2.099738             5.955266
| 61>   H                    : 10.821895            2.248391             5.526415
| 62>   H                    : 9.349085             0.884733             7.513064
| 63>   H                    : 10.919765            0.513887             6.798350
| 64>   H                    : 10.756156            2.010272             7.895772
| 65>   C                      7.234744             1.137100             3.646333
| 66>   O                      8.644821             1.312440             3.660855
| 67>   H                      8.815920             1.757779             4.445385
| 68>   H                      6.947070             0.669658             2.727372
| 69>   H                      6.962892             0.448695             4.396575
| 70>   H                      6.738247             2.099635             3.923597
| 71> *
| 72>
| 73>                          ****END OF INPUT****
 Total Charge           Charge          ....    0
 Multiplicity           Mult            ....    1
 Number of Electrons    NEL             ....   36
Dispersion correction           -0.001564375
FINAL SINGLE POINT ENERGY      -231.471551634522
Dispersion correction           -0.000229713
FINAL SINGLE POINT ENERGY      -115.734197382748

CARTESIAN COORDINATES (ANGSTROEM)
---------------------------------
  C     10.274794    1.349854    7.103478
  O      9.951728    2.099738    5.955266
  H     10.821895    2.248391    5.526415
  H      9.349085    0.884733    7.513064
  H     10.919765    0.513887    6.798350
  H     10.756156    2.010272    7.895772
  C      7.234744    1.137100    3.646333
  O      8.644821    1.312440    3.660855
  H      8.815920    1.757779    4.445385
  H      6.947070    0.669658    2.727372
  H      6.962892    0.448695    4.396575
  H      6.738247    2.099635    3.923597

 Multiplicity           Mult            ....    1
 Number of Electrons    NEL             ....   18
 Basis Dimension        Dim             ....  172

ORBITAL ENERGIES
----------------

  NO   OCC          E(Eh)            E(eV)
   0   2.0000     -19.224857      -523.1350
   1   2.0000     -10.309965      -280.5484
   2   2.0000      -1.144473       -31.1427
   3   2.0000      -0.801226       -21.8025
   4   2.0000      -0.615247       -16.7417
   5   2.0000      -0.544569       -14.8185
   6   2.0000      -0.528496       -14.3811
   7   2.0000      -0.444055       -12.0833
   8   2.0000      -0.371997       -10.1226
   9   0.0000       0.076048         2.0694
  10   0.0000       0.129511         3.5242
  11   0.0000       0.151561         4.1242
  12   0.0000       0.176926         4.8144
  13   0.0000       0.196459         5.3459

MULLIKEN ATOMIC CHARGES
-----------------------
   0 C :   -0.004188
   1 O :   -0.002130
   2 H :   -0.000303
   3 H :    0.000257
   4 H :    0.000504
   5 H :   -0.000087
   6 C :   -0.170515
   7 O :   -0.455876
   8 H :    0.300488
   9 H :    0.122907
  10 H :    0.107802
  11 H :    0.101140
Sum of atomic charges:    0.0000000

LOEWDIN ATOMIC CHARGES
----------------------
   0 C :   -0.003290
   1 O :   -0.021401
   2 H :   -0.002155
   3 H :   -0.000192
   4 H :   -0.000172
   5 H :   -0.000093
   6 C :   -0.367536
   7 O :   -0.048805
   8 H :    0.149000
   9 H :    0.105323
  10 H :    0.087168
  11 H :    0.102153

  Mayer bond orders larger than 0.1
B(  6-C ,  7-O ) :   0.9920 B(  6-C ,  9-H ) :   0.9746 B(  6-C , 10-H ) :   0.9755
B(  6-C , 11-H ) :   0.9851 B(  7-O ,  8-H ) :   0.9158

Dispersion correction           -0.000210199
FINAL SINGLE POINT ENERGY      -115.731019491324

DIPOLE MOMENT
-------------
                                X             Y             Z
Electronic contribution:      1.73819       0.15697      -0.21671
Nuclear contribution   :     -2.20128       0.02304       0.71681
                        -----------------------------------------
Total Dipole Moment    :     -0.46309       0.18001       0.50010
                        -----------------------------------------
Magnitude (a.u.)       :      0.70495
Magnitude (Debye)      :      1.79184

Rotational constants in cm-1:     4.344861     0.845569     0.804371
Rotational constants in MHz : 130255.667527 25349.529864 24114.438734

                             ****ORCA TERMINATED NORMALLY****
TOTAL RUN TIME: 0 days 0 hours 0 minutes 46 seconds 5 msec
