                         Program Version 4.1.2  - RELEASE  -
|  1> #Run DFT-D3 single point of the dimer
|  2> ! wB97X-D3 def2-TZVP TIGHTSCF CHELPG PMODEL PAL8
|  3>
|  4> %base "4-79_DFT_AB"
|  5>
|  6> %scf
|  7> MaxIter 1000
|  8> end
|  9>
| 10> * xyz 0 1
| 11>   C                      10.523130            -2.639775            4.449714
| 12>   O                      9.637086             -1.623541            4.944725
| 13>   H                      10.235835            -1.029594            5.432499
| 14>   H                      10.169014            -3.207924            3.581402
| 15>   H                      11.577218            -2.300368            4.261550
| 16>   H                      10.573071            -3.466301            5.153517
| 17>   C                      7.671328             -2.158835            9.111072
| 18>   O                      6.290404             -2.550753            9.166028
| 19>   H                      6.242656             -3.411438            8.695258
| 20>   H                      8.359693             -2.896538            9.464995
| 21>   H                      8.076083             -1.876635            8.140413
| 22>   H                      7.923211             -1.289379            9.767768
| 23> *
| 24>
| 25> #Run DFT-D3 single point of the molecule with dimer basis set
| 26> $new_job
| 27> %base "4-79_DFT_A"
| 28> ! wB97X-D3 def2-TZVP TIGHTSCF CHELPG PMODEL
| 29>
| 30> %scf
| 31> MaxIter 1000
| 32> end
| 33>
| 34> * xyz 0 1
| 35>   C                      10.523130            -2.639775            4.449714
| 36>   O                      9.637086             -1.623541            4.944725
| 37>   H                      10.235835            -1.029594            5.432499
| 38>   H                      10.169014            -3.207924            3.581402
| 39>   H                      11.577218            -2.300368            4.261550
| 40>   H                      10.573071            -3.466301            5.153517
| 41>   C                    : 7.671328             -2.158835            9.111072
| 42>   O                    : 6.290404             -2.550753            9.166028
| 43>   H                    : 6.242656             -3.411438            8.695258
| 44>   H                    : 8.359693             -2.896538            9.464995
| 45>   H                    : 8.076083             -1.876635            8.140413
| 46>   H                    : 7.923211             -1.289379            9.767768
| 47> *
| 48>
| 49> #Run DFT-D3 single point of the particle with dimer basis set
| 50> $new_job
| 51> %base "4-79_DFT_B"
| 52> ! wB97X-D3 def2-TZVP TIGHTSCF CHELPG PMODEL
| 53>
| 54> %scf
| 55> MaxIter 1000
| 56> end
| 57>
| 58> * xyz 0 1
| 59>   C                    : 10.523130            -2.639775            4.449714
| 60>   O                    : 9.637086             -1.623541            4.944725
| 61>   H                    : 10.235835            -1.029594            5.432499
| 62>   H                    : 10.169014            -3.207924            3.581402
| 63>   H                    : 11.577218            -2.300368            4.261550
| 64>   H                    : 10.573071            -3.466301            5.153517
| 65>   C                      7.671328             -2.158835            9.111072
| 66>   O                      6.290404             -2.550753            9.166028
| 67>   H                      6.242656             -3.411438            8.695258
| 68>   H                      8.359693             -2.896538            9.464995
| 69>   H                      8.076083             -1.876635            8.140413
| 70>   H                      7.923211             -1.289379            9.767768
| 71> *
| 72>
| 73>                          ****END OF INPUT****
 Total Charge           Charge          ....    0
 Multiplicity           Mult            ....    1
 Number of Electrons    NEL             ....   36
Dispersion correction           -0.000872834
FINAL SINGLE POINT ENERGY      -231.461897668546
Dispersion correction           -0.000261416
FINAL SINGLE POINT ENERGY      -115.730148218935

CARTESIAN COORDINATES (ANGSTROEM)
---------------------------------
  C     10.523130   -2.639775    4.449714
  O      9.637086   -1.623541    4.944725
  H     10.235835   -1.029594    5.432499
  H     10.169014   -3.207924    3.581402
  H     11.577218   -2.300368    4.261550
  H     10.573071   -3.466301    5.153517
  C      7.671328   -2.158835    9.111072
  O      6.290404   -2.550753    9.166028
  H      6.242656   -3.411438    8.695258
  H      8.359693   -2.896538    9.464995
  H      8.076083   -1.876635    8.140413
  H      7.923211   -1.289379    9.767768

 Multiplicity           Mult            ....    1
 Number of Electrons    NEL             ....   18
 Basis Dimension        Dim             ....  172

ORBITAL ENERGIES
----------------

  NO   OCC          E(Eh)            E(eV)
   0   2.0000     -19.238904      -523.5172
   1   2.0000     -10.314299      -280.6663
   2   2.0000      -1.129016       -30.7221
   3   2.0000      -0.798425       -21.7262
   4   2.0000      -0.608908       -16.5692
   5   2.0000      -0.534966       -14.5572
   6   2.0000      -0.522564       -14.2197
   7   2.0000      -0.436680       -11.8827
   8   2.0000      -0.378109       -10.2889
   9   0.0000       0.080501         2.1905
  10   0.0000       0.114638         3.1194
  11   0.0000       0.139107         3.7853
  12   0.0000       0.165613         4.5066
  13   0.0000       0.189208         5.1486

MULLIKEN ATOMIC CHARGES
-----------------------
   0 C :   -0.000007
   1 O :    0.000002
   2 H :   -0.000117
   3 H :   -0.000001
   4 H :   -0.000001
   5 H :   -0.000046
   6 C :   -0.182002
   7 O :   -0.469766
   8 H :    0.317736
   9 H :    0.112491
  10 H :    0.102817
  11 H :    0.118893
Sum of atomic charges:   -0.0000000

LOEWDIN ATOMIC CHARGES
----------------------
   0 C :   -0.000087
   1 O :   -0.000272
   2 H :   -0.000258
   3 H :   -0.000001
   4 H :   -0.000000
   5 H :   -0.000024
   6 C :   -0.384562
   7 O :   -0.096109
   8 H :    0.183780
   9 H :    0.090450
  10 H :    0.092460
  11 H :    0.114625

  Mayer bond orders larger than 0.1
B(  6-C ,  7-O ) :   1.0046 B(  6-C ,  9-H ) :   0.9755 B(  6-C , 10-H ) :   0.9712
B(  6-C , 11-H ) :   0.9744 B(  7-O ,  8-H ) :   0.8960

Dispersion correction           -0.000271716
FINAL SINGLE POINT ENERGY      -115.731195601324

DIPOLE MOMENT
-------------
                                X             Y             Z
Electronic contribution:     -1.97065      -0.43274       0.11063
Nuclear contribution   :      2.50874       0.04406      -0.41064
                        -----------------------------------------
Total Dipole Moment    :      0.53809      -0.38868      -0.30001
                        -----------------------------------------
Magnitude (a.u.)       :      0.72844
Magnitude (Debye)      :      1.85154

Rotational constants in cm-1:     4.478364     0.795387     0.764929
Rotational constants in MHz : 134257.968743 23845.088636 22931.989022

                             ****ORCA TERMINATED NORMALLY****
TOTAL RUN TIME: 0 days 0 hours 1 minutes 31 seconds 286 msec
