                         Program Version 4.1.2  - RELEASE  -
|  1> #Run DFT-D3 single point of the dimer
|  2> ! wB97X-D3 def2-TZVP TIGHTSCF CHELPG PMODEL PAL8
|  3>
|  4> %base "17-112_DFT_AB"
|  5>
|  6> %scf
|  7> MaxIter 1000
|  8> end
|  9>
| 10> * xyz 0 1
| 11>   C                      -9.154546            1.934879             -6.663609
| 12>   O                      -7.723137            1.838977             -6.525834
| 13>   H                      -7.325439            2.560128             -6.967846
| 14>   H                      -9.538992            1.800190             -7.658600
| 15>   H                      -9.758094            1.485448             -5.888381
| 16>   H                      -9.552824            2.964969             -6.674743
| 17>   C                      -9.052009            -1.199109            -8.938639
| 18>   O                      -10.155990           -1.919231            -8.421240
| 19>   H                      -10.052188           -2.063370            -7.485254
| 20>   H                      -8.106593            -1.434244            -8.527533
| 21>   H                      -8.975813            -1.231575            -10.048567
| 22>   H                      -9.261180            -0.121086            -8.653161
| 23> *
| 24>
| 25> #Run DFT-D3 single point of the molecule with dimer basis set
| 26> $new_job
| 27> %base "17-112_DFT_A"
| 28> ! wB97X-D3 def2-TZVP TIGHTSCF CHELPG PMODEL
| 29>
| 30> %scf
| 31> MaxIter 1000
| 32> end
| 33>
| 34> * xyz 0 1
| 35>   C                      -9.154546            1.934879             -6.663609
| 36>   O                      -7.723137            1.838977             -6.525834
| 37>   H                      -7.325439            2.560128             -6.967846
| 38>   H                      -9.538992            1.800190             -7.658600
| 39>   H                      -9.758094            1.485448             -5.888381
| 40>   H                      -9.552824            2.964969             -6.674743
| 41>   C                    : -9.052009            -1.199109            -8.938639
| 42>   O                    : -10.155990           -1.919231            -8.421240
| 43>   H                    : -10.052188           -2.063370            -7.485254
| 44>   H                    : -8.106593            -1.434244            -8.527533
| 45>   H                    : -8.975813            -1.231575            -10.048567
| 46>   H                    : -9.261180            -0.121086            -8.653161
| 47> *
| 48>
| 49> #Run DFT-D3 single point of the particle with dimer basis set
| 50> $new_job
| 51> %base "17-112_DFT_B"
| 52> ! wB97X-D3 def2-TZVP TIGHTSCF CHELPG PMODEL
| 53>
| 54> %scf
| 55> MaxIter 1000
| 56> end
| 57>
| 58> * xyz 0 1
| 59>   C                    : -9.154546            1.934879             -6.663609
| 60>   O                    : -7.723137            1.838977             -6.525834
| 61>   H                    : -7.325439            2.560128             -6.967846
| 62>   H                    : -9.538992            1.800190             -7.658600
| 63>   H                    : -9.758094            1.485448             -5.888381
| 64>   H                    : -9.552824            2.964969             -6.674743
| 65>   C                      -9.052009            -1.199109            -8.938639
| 66>   O                      -10.155990           -1.919231            -8.421240
| 67>   H                      -10.052188           -2.063370            -7.485254
| 68>   H                      -8.106593            -1.434244            -8.527533
| 69>   H                      -8.975813            -1.231575            -10.048567
| 70>   H                      -9.261180            -0.121086            -8.653161
| 71> *
| 72>
| 73>                          ****END OF INPUT****
 Total Charge           Charge          ....    0
 Multiplicity           Mult            ....    1
 Number of Electrons    NEL             ....   36
Dispersion correction           -0.001615208
FINAL SINGLE POINT ENERGY      -231.453230239139
Dispersion correction           -0.000271072
FINAL SINGLE POINT ENERGY      -115.720660234493

CARTESIAN COORDINATES (ANGSTROEM)
---------------------------------
  C     -9.154546    1.934879   -6.663609
  O     -7.723137    1.838977   -6.525834
  H     -7.325439    2.560128   -6.967846
  H     -9.538992    1.800190   -7.658600
  H     -9.758094    1.485448   -5.888381
  H     -9.552824    2.964969   -6.674743
  C     -9.052009   -1.199109   -8.938639
  O    -10.155990   -1.919231   -8.421240
  H    -10.052188   -2.063370   -7.485254
  H     -8.106593   -1.434244   -8.527533
  H     -8.975813   -1.231575  -10.048567
  H     -9.261180   -0.121086   -8.653161

 Multiplicity           Mult            ....    1
 Number of Electrons    NEL             ....   18
 Basis Dimension        Dim             ....  172

ORBITAL ENERGIES
----------------

  NO   OCC          E(Eh)            E(eV)
   0   2.0000     -19.228166      -523.2250
   1   2.0000     -10.316386      -280.7231
   2   2.0000      -1.135425       -30.8965
   3   2.0000      -0.796115       -21.6634
   4   2.0000      -0.615198       -16.7404
   5   2.0000      -0.534942       -14.5565
   6   2.0000      -0.528570       -14.3831
   7   2.0000      -0.434699       -11.8288
   8   2.0000      -0.368106       -10.0167
   9   0.0000       0.080965         2.2032
  10   0.0000       0.121183         3.2975
  11   0.0000       0.153616         4.1801
  12   0.0000       0.165784         4.5112
  13   0.0000       0.187027         5.0893

MULLIKEN ATOMIC CHARGES
-----------------------
   0 C :   -0.000599
   1 O :    0.000143
   2 H :    0.000017
   3 H :    0.001303
   4 H :   -0.000436
   5 H :    0.000233
   6 C :   -0.164528
   7 O :   -0.476702
   8 H :    0.314598
   9 H :    0.108475
  10 H :    0.122909
  11 H :    0.094588
Sum of atomic charges:   -0.0000000

LOEWDIN ATOMIC CHARGES
----------------------
   0 C :   -0.008065
   1 O :   -0.000226
   2 H :   -0.000061
   3 H :   -0.007202
   4 H :   -0.000190
   5 H :   -0.000045
   6 C :   -0.380537
   7 O :   -0.076514
   8 H :    0.163521
   9 H :    0.086191
  10 H :    0.112472
  11 H :    0.110655

  Mayer bond orders larger than 0.1
B(  6-C ,  7-O ) :   0.9924 B(  6-C ,  9-H ) :   0.9725 B(  6-C , 10-H ) :   0.9690
B(  6-C , 11-H ) :   0.9882 B(  7-O ,  8-H ) :   0.8988

Dispersion correction           -0.000245915
FINAL SINGLE POINT ENERGY      -115.731437758935

DIPOLE MOMENT
-------------
                                X             Y             Z
Electronic contribution:     -1.37978      -1.12509       0.51459
Nuclear contribution   :      1.90656       1.29989      -0.11318
                        -----------------------------------------
Total Dipole Moment    :      0.52678       0.17479       0.40141
                        -----------------------------------------
Magnitude (a.u.)       :      0.68496
Magnitude (Debye)      :      1.74104

Rotational constants in cm-1:     4.333141     0.822890     0.794243
Rotational constants in MHz : 129904.308337 24669.614375 23810.815908

                             ****ORCA TERMINATED NORMALLY****
TOTAL RUN TIME: 0 days 0 hours 1 minutes 1 seconds 702 msec
