                         Program Version 4.1.2  - RELEASE  -
|  1> #Run DFT-D3 single point of the dimer
|  2> ! wB97X-D3 def2-TZVP TIGHTSCF CHELPG PMODEL PAL8
|  3>
|  4> %base "20-138_DFT_AB"
|  5>
|  6> %scf
|  7> MaxIter 1000
|  8> end
|  9>
| 10> * xyz 0 1
| 11>   C                      -4.905139            5.262568             -10.301868
| 12>   O                      -4.333922            5.021783             -9.019390
| 13>   H                      -4.942635            5.445550             -8.437080
| 14>   H                      -4.087589            5.285542             -11.069867
| 15>   H                      -5.760049            4.649201             -10.628340
| 16>   H                      -5.338715            6.228068             -10.267397
| 17>   C                      -1.391945            3.297520             -7.878447
| 18>   O                      -1.548555            4.014057             -9.007819
| 19>   H                      -2.491489            4.133702             -9.258821
| 20>   H                      -1.953114            3.750853             -7.007505
| 21>   H                      -1.819787            2.295117             -8.033450
| 22>   H                      -0.295701            3.124531             -7.632486
| 23> *
| 24>
| 25> #Run DFT-D3 single point of the molecule with dimer basis set
| 26> $new_job
| 27> %base "20-138_DFT_A"
| 28> ! wB97X-D3 def2-TZVP TIGHTSCF CHELPG PMODEL
| 29>
| 30> %scf
| 31> MaxIter 1000
| 32> end
| 33>
| 34> * xyz 0 1
| 35>   C                      -4.905139            5.262568             -10.301868
| 36>   O                      -4.333922            5.021783             -9.019390
| 37>   H                      -4.942635            5.445550             -8.437080
| 38>   H                      -4.087589            5.285542             -11.069867
| 39>   H                      -5.760049            4.649201             -10.628340
| 40>   H                      -5.338715            6.228068             -10.267397
| 41>   C                    : -1.391945            3.297520             -7.878447
| 42>   O                    : -1.548555            4.014057             -9.007819
| 43>   H                    : -2.491489            4.133702             -9.258821
| 44>   H                    : -1.953114            3.750853             -7.007505
| 45>   H                    : -1.819787            2.295117             -8.033450
| 46>   H                    : -0.295701            3.124531             -7.632486
| 47> *
| 48>
| 49> #Run DFT-D3 single point of the particle with dimer basis set
| 50> $new_job
| 51> %base "20-138_DFT_B"
| 52> ! wB97X-D3 def2-TZVP TIGHTSCF CHELPG PMODEL
| 53>
| 54> %scf
| 55> MaxIter 1000
| 56> end
| 57>
| 58> * xyz 0 1
| 59>   C                    : -4.905139            5.262568             -10.301868
| 60>   O                    : -4.333922            5.021783             -9.019390
| 61>   H                    : -4.942635            5.445550             -8.437080
| 62>   H                    : -4.087589            5.285542             -11.069867
| 63>   H                    : -5.760049            4.649201             -10.628340
| 64>   H                    : -5.338715            6.228068             -10.267397
| 65>   C                      -1.391945            3.297520             -7.878447
| 66>   O                      -1.548555            4.014057             -9.007819
| 67>   H                      -2.491489            4.133702             -9.258821
| 68>   H                      -1.953114            3.750853             -7.007505
| 69>   H                      -1.819787            2.295117             -8.033450
| 70>   H                      -0.295701            3.124531             -7.632486
| 71> *
| 72>
| 73>                          ****END OF INPUT****
 Total Charge           Charge          ....    0
 Multiplicity           Mult            ....    1
 Number of Electrons    NEL             ....   36
Dispersion correction           -0.001614804
FINAL SINGLE POINT ENERGY      -231.467482446681
Dispersion correction           -0.000237191
FINAL SINGLE POINT ENERGY      -115.730384933270

CARTESIAN COORDINATES (ANGSTROEM)
---------------------------------
  C     -4.905139    5.262568  -10.301868
  O     -4.333922    5.021783   -9.019390
  H     -4.942635    5.445550   -8.437080
  H     -4.087589    5.285542  -11.069867
  H     -5.760049    4.649201  -10.628340
  H     -5.338715    6.228068  -10.267397
  C     -1.391945    3.297520   -7.878447
  O     -1.548555    4.014057   -9.007819
  H     -2.491489    4.133702   -9.258821
  H     -1.953114    3.750853   -7.007505
  H     -1.819787    2.295117   -8.033450
  H     -0.295701    3.124531   -7.632486

 Multiplicity           Mult            ....    1
 Number of Electrons    NEL             ....   18
 Basis Dimension        Dim             ....  172

ORBITAL ENERGIES
----------------

  NO   OCC          E(Eh)            E(eV)
   0   2.0000     -19.231093      -523.3046
   1   2.0000     -10.316397      -280.7234
   2   2.0000      -1.152942       -31.3731
   3   2.0000      -0.786474       -21.4010
   4   2.0000      -0.620785       -16.8924
   5   2.0000      -0.545551       -14.8452
   6   2.0000      -0.535218       -14.5640
   7   2.0000      -0.420880       -11.4527
   8   2.0000      -0.365505        -9.9459
   9   0.0000       0.069162         1.8820
  10   0.0000       0.127780         3.4771
  11   0.0000       0.149901         4.0790
  12   0.0000       0.164554         4.4777
  13   0.0000       0.196389         5.3440

MULLIKEN ATOMIC CHARGES
-----------------------
   0 C :   -0.003086
   1 O :   -0.003083
   2 H :   -0.000145
   3 H :    0.000211
   4 H :    0.000140
   5 H :    0.000195
   6 C :   -0.143623
   7 O :   -0.463387
   8 H :    0.322563
   9 H :    0.085813
  10 H :    0.090018
  11 H :    0.114382
Sum of atomic charges:   -0.0000000

LOEWDIN ATOMIC CHARGES
----------------------
   0 C :   -0.004237
   1 O :   -0.015405
   2 H :   -0.000648
   3 H :   -0.000650
   4 H :   -0.000054
   5 H :   -0.000083
   6 C :   -0.447073
   7 O :   -0.029729
   8 H :    0.195235
   9 H :    0.095413
  10 H :    0.090606
  11 H :    0.116624

  Mayer bond orders larger than 0.1
B(  6-C ,  7-O ) :   1.0037 B(  6-C ,  9-H ) :   0.9738 B(  6-C , 10-H ) :   0.9861
B(  6-C , 11-H ) :   0.9661 B(  7-O ,  8-H ) :   0.8890

Dispersion correction           -0.000227729
FINAL SINGLE POINT ENERGY      -115.730434718925

DIPOLE MOMENT
-------------
                                X             Y             Z
Electronic contribution:     -0.01783       1.05441      -1.54340
Nuclear contribution   :     -0.52106      -1.24378       1.76482
                        -----------------------------------------
Total Dipole Moment    :     -0.53889      -0.18937       0.22142
                        -----------------------------------------
Magnitude (a.u.)       :      0.61261
Magnitude (Debye)      :      1.55713

Rotational constants in cm-1:     4.152061     0.888880     0.849708
Rotational constants in MHz : 124475.646905 26647.964867 25473.592180

                             ****ORCA TERMINATED NORMALLY****
TOTAL RUN TIME: 0 days 0 hours 0 minutes 57 seconds 369 msec
