                         Program Version 4.1.2  - RELEASE  -
|  1> #Run DFT-D3 single point of the dimer
|  2> ! wB97X-D3 def2-TZVP TIGHTSCF CHELPG PMODEL PAL8
|  3>
|  4> %base "1-122_DFT_AB"
|  5>
|  6> %scf
|  7> MaxIter 1000
|  8> end
|  9>
| 10> * xyz 0 1
| 11>   C                      5.542015             10.680437            -0.691978
| 12>   O                      6.160653             11.159139            -1.887757
| 13>   H                      6.573102             10.470271            -2.373774
| 14>   H                      5.940830             11.268965            0.206580
| 15>   H                      4.456905             10.788980            -0.753969
| 16>   H                      5.760810             9.654491             -0.559294
| 17>   C                      8.145846             11.783341            0.442397
| 18>   O                      8.499043             10.451135            0.127607
| 19>   H                      7.846005             10.130559            -0.477154
| 20>   H                      7.056887             11.959913            0.720150
| 21>   H                      8.715638             12.109404            1.251351
| 22>   H                      8.423194             12.477013            -0.366497
| 23> *
| 24>
| 25> #Run DFT-D3 single point of the molecule with dimer basis set
| 26> $new_job
| 27> %base "1-122_DFT_A"
| 28> ! wB97X-D3 def2-TZVP TIGHTSCF CHELPG PMODEL
| 29>
| 30> %scf
| 31> MaxIter 1000
| 32> end
| 33>
| 34> * xyz 0 1
| 35>   C                      5.542015             10.680437            -0.691978
| 36>   O                      6.160653             11.159139            -1.887757
| 37>   H                      6.573102             10.470271            -2.373774
| 38>   H                      5.940830             11.268965            0.206580
| 39>   H                      4.456905             10.788980            -0.753969
| 40>   H                      5.760810             9.654491             -0.559294
| 41>   C                    : 8.145846             11.783341            0.442397
| 42>   O                    : 8.499043             10.451135            0.127607
| 43>   H                    : 7.846005             10.130559            -0.477154
| 44>   H                    : 7.056887             11.959913            0.720150
| 45>   H                    : 8.715638             12.109404            1.251351
| 46>   H                    : 8.423194             12.477013            -0.366497
| 47> *
| 48>
| 49> #Run DFT-D3 single point of the particle with dimer basis set
| 50> $new_job
| 51> %base "1-122_DFT_B"
| 52> ! wB97X-D3 def2-TZVP TIGHTSCF CHELPG PMODEL
| 53>
| 54> %scf
| 55> MaxIter 1000
| 56> end
| 57>
| 58> * xyz 0 1
| 59>   C                    : 5.542015             10.680437            -0.691978
| 60>   O                    : 6.160653             11.159139            -1.887757
| 61>   H                    : 6.573102             10.470271            -2.373774
| 62>   H                    : 5.940830             11.268965            0.206580
| 63>   H                    : 4.456905             10.788980            -0.753969
| 64>   H                    : 5.760810             9.654491             -0.559294
| 65>   C                      8.145846             11.783341            0.442397
| 66>   O                      8.499043             10.451135            0.127607
| 67>   H                      7.846005             10.130559            -0.477154
| 68>   H                      7.056887             11.959913            0.720150
| 69>   H                      8.715638             12.109404            1.251351
| 70>   H                      8.423194             12.477013            -0.366497
| 71> *
| 72>
| 73>                          ****END OF INPUT****
 Total Charge           Charge          ....    0
 Multiplicity           Mult            ....    1
 Number of Electrons    NEL             ....   36
Dispersion correction           -0.002578041
FINAL SINGLE POINT ENERGY      -231.455533091176
Dispersion correction           -0.000254912
FINAL SINGLE POINT ENERGY      -115.733391760994

CARTESIAN COORDINATES (ANGSTROEM)
---------------------------------
  C      5.542015   10.680437   -0.691978
  O      6.160653   11.159139   -1.887757
  H      6.573102   10.470271   -2.373774
  H      5.940830   11.268965    0.206580
  H      4.456905   10.788980   -0.753969
  H      5.760810    9.654491   -0.559294
  C      8.145846   11.783341    0.442397
  O      8.499043   10.451135    0.127607
  H      7.846005   10.130559   -0.477154
  H      7.056887   11.959913    0.720150
  H      8.715638   12.109404    1.251351
  H      8.423194   12.477013   -0.366497

 Multiplicity           Mult            ....    1
 Number of Electrons    NEL             ....   18
 Basis Dimension        Dim             ....  172

ORBITAL ENERGIES
----------------

  NO   OCC          E(Eh)            E(eV)
   0   2.0000     -19.233288      -523.3644
   1   2.0000     -10.312315      -280.6124
   2   2.0000      -1.141519       -31.0623
   3   2.0000      -0.799560       -21.7571
   4   2.0000      -0.611619       -16.6430
   5   2.0000      -0.538253       -14.6466
   6   2.0000      -0.532381       -14.4868
   7   2.0000      -0.438241       -11.9251
   8   2.0000      -0.375839       -10.2271
   9   0.0000       0.074142         2.0175
  10   0.0000       0.142154         3.8682
  11   0.0000       0.149564         4.0699
  12   0.0000       0.167780         4.5655
  13   0.0000       0.204302         5.5593

MULLIKEN ATOMIC CHARGES
-----------------------
   0 C :   -0.018981
   1 O :    0.000097
   2 H :   -0.001278
   3 H :    0.016216
   4 H :    0.000050
   5 H :    0.000028
   6 C :   -0.176148
   7 O :   -0.456223
   8 H :    0.315681
   9 H :    0.082794
  10 H :    0.129373
  11 H :    0.108391
Sum of atomic charges:   -0.0000000

LOEWDIN ATOMIC CHARGES
----------------------
   0 C :   -0.034819
   1 O :   -0.004895
   2 H :   -0.002524
   3 H :   -0.042098
   4 H :   -0.000245
   5 H :   -0.003703
   6 C :   -0.360851
   7 O :   -0.047583
   8 H :    0.166652
   9 H :    0.134736
  10 H :    0.096248
  11 H :    0.099082

  Mayer bond orders larger than 0.1
B(  6-C ,  7-O ) :   1.0025 B(  6-C ,  9-H ) :   0.9771 B(  6-C , 10-H ) :   0.9751
B(  6-C , 11-H ) :   0.9849 B(  7-O ,  8-H ) :   0.9090

Dispersion correction           -0.000252049
FINAL SINGLE POINT ENERGY      -115.734126679227

DIPOLE MOMENT
-------------
                                X             Y             Z
Electronic contribution:      0.58793      -1.79563      -0.29606
Nuclear contribution   :     -1.10317       2.11224       0.06151
                        -----------------------------------------
Total Dipole Moment    :     -0.51525       0.31661      -0.23455
                        -----------------------------------------
Magnitude (a.u.)       :      0.64864
Magnitude (Debye)      :      1.64870

Rotational constants in cm-1:     4.382658     0.825000     0.800063
Rotational constants in MHz : 131388.777506 24732.869725 23985.288194

                             ****ORCA TERMINATED NORMALLY****
TOTAL RUN TIME: 0 days 0 hours 5 minutes 40 seconds 46 msec
