                         Program Version 4.1.2  - RELEASE  -
|  1> #Run DFT-D3 single point of the dimer
|  2> ! wB97X-D3 def2-TZVP TIGHTSCF CHELPG PMODEL PAL8
|  3>
|  4> %base "6-71_DFT_AB"
|  5>
|  6> %scf
|  7> MaxIter 1000
|  8> end
|  9>
| 10> * xyz 0 1
| 11>   C                      -3.007502            9.442801             -7.537317
| 12>   O                      -3.771246            10.636848            -7.389227
| 13>   H                      -4.466168            10.347383            -6.812460
| 14>   H                      -3.662800            8.684267             -8.136335
| 15>   H                      -2.027431            9.581203             -7.950742
| 16>   H                      -2.782450            9.003005             -6.589918
| 17>   C                      1.633574             10.369596            -8.118761
| 18>   O                      2.341483             11.343131            -7.413708
| 19>   H                      2.068565             11.232816            -6.500438
| 20>   H                      0.633480             10.177158            -7.607280
| 21>   H                      1.428288             10.614693            -9.135905
| 22>   H                      2.156718             9.425872             -8.155743
| 23> *
| 24>
| 25> #Run DFT-D3 single point of the molecule with dimer basis set
| 26> $new_job
| 27> %base "6-71_DFT_A"
| 28> ! wB97X-D3 def2-TZVP TIGHTSCF CHELPG PMODEL
| 29>
| 30> %scf
| 31> MaxIter 1000
| 32> end
| 33>
| 34> * xyz 0 1
| 35>   C                      -3.007502            9.442801             -7.537317
| 36>   O                      -3.771246            10.636848            -7.389227
| 37>   H                      -4.466168            10.347383            -6.812460
| 38>   H                      -3.662800            8.684267             -8.136335
| 39>   H                      -2.027431            9.581203             -7.950742
| 40>   H                      -2.782450            9.003005             -6.589918
| 41>   C                    : 1.633574             10.369596            -8.118761
| 42>   O                    : 2.341483             11.343131            -7.413708
| 43>   H                    : 2.068565             11.232816            -6.500438
| 44>   H                    : 0.633480             10.177158            -7.607280
| 45>   H                    : 1.428288             10.614693            -9.135905
| 46>   H                    : 2.156718             9.425872             -8.155743
| 47> *
| 48>
| 49> #Run DFT-D3 single point of the particle with dimer basis set
| 50> $new_job
| 51> %base "6-71_DFT_B"
| 52> ! wB97X-D3 def2-TZVP TIGHTSCF CHELPG PMODEL
| 53>
| 54> %scf
| 55> MaxIter 1000
| 56> end
| 57>
| 58> * xyz 0 1
| 59>   C                    : -3.007502            9.442801             -7.537317
| 60>   O                    : -3.771246            10.636848            -7.389227
| 61>   H                    : -4.466168            10.347383            -6.812460
| 62>   H                    : -3.662800            8.684267             -8.136335
| 63>   H                    : -2.027431            9.581203             -7.950742
| 64>   H                    : -2.782450            9.003005             -6.589918
| 65>   C                      1.633574             10.369596            -8.118761
| 66>   O                      2.341483             11.343131            -7.413708
| 67>   H                      2.068565             11.232816            -6.500438
| 68>   H                      0.633480             10.177158            -7.607280
| 69>   H                      1.428288             10.614693            -9.135905
| 70>   H                      2.156718             9.425872             -8.155743
| 71> *
| 72>
| 73>                          ****END OF INPUT****
 Total Charge           Charge          ....    0
 Multiplicity           Mult            ....    1
 Number of Electrons    NEL             ....   36
Dispersion correction           -0.000926121
FINAL SINGLE POINT ENERGY      -231.462183711033
Dispersion correction           -0.000226279
FINAL SINGLE POINT ENERGY      -115.729020817217

CARTESIAN COORDINATES (ANGSTROEM)
---------------------------------
  C     -3.007502    9.442801   -7.537317
  O     -3.771246   10.636848   -7.389227
  H     -4.466168   10.347383   -6.812460
  H     -3.662800    8.684267   -8.136335
  H     -2.027431    9.581203   -7.950742
  H     -2.782450    9.003005   -6.589918
  C      1.633574   10.369596   -8.118761
  O      2.341483   11.343131   -7.413708
  H      2.068565   11.232816   -6.500438
  H      0.633480   10.177158   -7.607280
  H      1.428288   10.614693   -9.135905
  H      2.156718    9.425872   -8.155743

 Multiplicity           Mult            ....    1
 Number of Electrons    NEL             ....   18
 Basis Dimension        Dim             ....  172

ORBITAL ENERGIES
----------------

  NO   OCC          E(Eh)            E(eV)
   0   2.0000     -19.231781      -523.3234
   1   2.0000     -10.311897      -280.6010
   2   2.0000      -1.145068       -31.1589
   3   2.0000      -0.794597       -21.6221
   4   2.0000      -0.613118       -16.6838
   5   2.0000      -0.541889       -14.7456
   6   2.0000      -0.537333       -14.6216
   7   2.0000      -0.432843       -11.7782
   8   2.0000      -0.372942       -10.1483
   9   0.0000       0.082062         2.2330
  10   0.0000       0.113859         3.0983
  11   0.0000       0.145695         3.9646
  12   0.0000       0.174372         4.7449
  13   0.0000       0.186296         5.0694

MULLIKEN ATOMIC CHARGES
-----------------------
   0 C :    0.001215
   1 O :   -0.000027
   2 H :    0.000000
   3 H :   -0.000047
   4 H :   -0.002206
   5 H :   -0.000208
   6 C :   -0.166071
   7 O :   -0.462492
   8 H :    0.320257
   9 H :    0.092022
  10 H :    0.116619
  11 H :    0.100938
Sum of atomic charges:    0.0000000

LOEWDIN ATOMIC CHARGES
----------------------
   0 C :   -0.000887
   1 O :   -0.000005
   2 H :   -0.000001
   3 H :   -0.000003
   4 H :   -0.002469
   5 H :   -0.000059
   6 C :   -0.401841
   7 O :   -0.062385
   8 H :    0.174303
   9 H :    0.104126
  10 H :    0.098385
  11 H :    0.090837

  Mayer bond orders larger than 0.1
B(  6-C ,  7-O ) :   1.0117 B(  6-C ,  9-H ) :   0.9926 B(  6-C , 10-H ) :   0.9746
B(  6-C , 11-H ) :   0.9707 B(  7-O ,  8-H ) :   0.8986

Dispersion correction           -0.000230015
FINAL SINGLE POINT ENERGY      -115.732955151933

DIPOLE MOMENT
-------------
                                X             Y             Z
Electronic contribution:      1.08602       1.40935       0.73023
Nuclear contribution   :     -1.52388      -1.83980      -0.43420
                        -----------------------------------------
Total Dipole Moment    :     -0.43786      -0.43045       0.29603
                        -----------------------------------------
Magnitude (a.u.)       :      0.68165
Magnitude (Debye)      :      1.73261

Rotational constants in cm-1:     4.321081     0.850893     0.814755
Rotational constants in MHz : 129542.741380 25509.129257 24425.754772

                             ****ORCA TERMINATED NORMALLY****
TOTAL RUN TIME: 0 days 0 hours 1 minutes 3 seconds 897 msec
