                         Program Version 4.1.2  - RELEASE  -
|  1> #Run DFT-D3 single point of the dimer
|  2> ! wB97X-D3 def2-TZVP TIGHTSCF CHELPG PMODEL PAL8
|  3>
|  4> %base "14-150_DFT_AB"
|  5>
|  6> %scf
|  7> MaxIter 1000
|  8> end
|  9>
| 10> * xyz 0 1
| 11>   C                      -4.693738            -9.960927            -0.143126
| 12>   O                      -5.810414            -10.764771           0.021449
| 13>   H                      -5.463451            -11.665222           0.116989
| 14>   H                      -3.954437            -10.168414           0.577777
| 15>   H                      -4.210351            -10.245416           -1.111892
| 16>   H                      -4.893155            -8.871714            -0.233285
| 17>   C                      -8.659196            -11.380347           2.258622
| 18>   O                      -8.015403            -10.119190           1.994578
| 19>   H                      -7.263867            -10.245382           1.409500
| 20>   H                      -9.019164            -11.471133           3.334621
| 21>   H                      -9.577396            -11.454294           1.627636
| 22>   H                      -8.033937            -12.251712           1.920148
| 23> *
| 24>
| 25> #Run DFT-D3 single point of the molecule with dimer basis set
| 26> $new_job
| 27> %base "14-150_DFT_A"
| 28> ! wB97X-D3 def2-TZVP TIGHTSCF CHELPG PMODEL
| 29>
| 30> %scf
| 31> MaxIter 1000
| 32> end
| 33>
| 34> * xyz 0 1
| 35>   C                      -4.693738            -9.960927            -0.143126
| 36>   O                      -5.810414            -10.764771           0.021449
| 37>   H                      -5.463451            -11.665222           0.116989
| 38>   H                      -3.954437            -10.168414           0.577777
| 39>   H                      -4.210351            -10.245416           -1.111892
| 40>   H                      -4.893155            -8.871714            -0.233285
| 41>   C                    : -8.659196            -11.380347           2.258622
| 42>   O                    : -8.015403            -10.119190           1.994578
| 43>   H                    : -7.263867            -10.245382           1.409500
| 44>   H                    : -9.019164            -11.471133           3.334621
| 45>   H                    : -9.577396            -11.454294           1.627636
| 46>   H                    : -8.033937            -12.251712           1.920148
| 47> *
| 48>
| 49> #Run DFT-D3 single point of the particle with dimer basis set
| 50> $new_job
| 51> %base "14-150_DFT_B"
| 52> ! wB97X-D3 def2-TZVP TIGHTSCF CHELPG PMODEL
| 53>
| 54> %scf
| 55> MaxIter 1000
| 56> end
| 57>
| 58> * xyz 0 1
| 59>   C                    : -4.693738            -9.960927            -0.143126
| 60>   O                    : -5.810414            -10.764771           0.021449
| 61>   H                    : -5.463451            -11.665222           0.116989
| 62>   H                    : -3.954437            -10.168414           0.577777
| 63>   H                    : -4.210351            -10.245416           -1.111892
| 64>   H                    : -4.893155            -8.871714            -0.233285
| 65>   C                      -8.659196            -11.380347           2.258622
| 66>   O                      -8.015403            -10.119190           1.994578
| 67>   H                      -7.263867            -10.245382           1.409500
| 68>   H                      -9.019164            -11.471133           3.334621
| 69>   H                      -9.577396            -11.454294           1.627636
| 70>   H                      -8.033937            -12.251712           1.920148
| 71> *
| 72>
| 73>                          ****END OF INPUT****
 Total Charge           Charge          ....    0
 Multiplicity           Mult            ....    1
 Number of Electrons    NEL             ....   36
Dispersion correction           -0.001615825
FINAL SINGLE POINT ENERGY      -231.471069612582
Dispersion correction           -0.000212157
FINAL SINGLE POINT ENERGY      -115.731388845715

CARTESIAN COORDINATES (ANGSTROEM)
---------------------------------
  C     -4.693738   -9.960927   -0.143126
  O     -5.810414  -10.764771    0.021449
  H     -5.463451  -11.665222    0.116989
  H     -3.954437  -10.168414    0.577777
  H     -4.210351  -10.245416   -1.111892
  H     -4.893155   -8.871714   -0.233285
  C     -8.659196  -11.380347    2.258622
  O     -8.015403  -10.119190    1.994578
  H     -7.263867  -10.245382    1.409500
  H     -9.019164  -11.471133    3.334621
  H     -9.577396  -11.454294    1.627636
  H     -8.033937  -12.251712    1.920148

 Multiplicity           Mult            ....    1
 Number of Electrons    NEL             ....   18
 Basis Dimension        Dim             ....  172

ORBITAL ENERGIES
----------------

  NO   OCC          E(Eh)            E(eV)
   0   2.0000     -19.230815      -523.2971
   1   2.0000     -10.326395      -280.9955
   2   2.0000      -1.127540       -30.6819
   3   2.0000      -0.790204       -21.5026
   4   2.0000      -0.607114       -16.5204
   5   2.0000      -0.527895       -14.3648
   6   2.0000      -0.524851       -14.2819
   7   2.0000      -0.434386       -11.8202
   8   2.0000      -0.370918       -10.0932
   9   0.0000       0.068091         1.8528
  10   0.0000       0.124960         3.4003
  11   0.0000       0.147822         4.0224
  12   0.0000       0.165894         4.5142
  13   0.0000       0.194969         5.3054

MULLIKEN ATOMIC CHARGES
-----------------------
   0 C :   -0.001651
   1 O :   -0.002999
   2 H :   -0.000094
   3 H :    0.000016
   4 H :    0.000052
   5 H :    0.000027
   6 C :   -0.171744
   7 O :   -0.476318
   8 H :    0.315955
   9 H :    0.121176
  10 H :    0.107091
  11 H :    0.108490
Sum of atomic charges:   -0.0000000

LOEWDIN ATOMIC CHARGES
----------------------
   0 C :   -0.002778
   1 O :   -0.013812
   2 H :   -0.001049
   3 H :   -0.000083
   4 H :   -0.000063
   5 H :   -0.000137
   6 C :   -0.377833
   7 O :   -0.091177
   8 H :    0.172295
   9 H :    0.112899
  10 H :    0.099737
  11 H :    0.102003

  Mayer bond orders larger than 0.1
B(  6-C ,  7-O ) :   0.9912 B(  6-C ,  9-H ) :   0.9696 B(  6-C , 10-H ) :   0.9747
B(  6-C , 11-H ) :   0.9759 B(  7-O ,  8-H ) :   0.9062

Dispersion correction           -0.000275462
FINAL SINGLE POINT ENERGY      -115.731732395206

DIPOLE MOMENT
-------------
                                X             Y             Z
Electronic contribution:      0.81498       1.67096      -0.16611
Nuclear contribution   :     -0.59303      -2.27275      -0.11586
                        -----------------------------------------
Total Dipole Moment    :      0.22195      -0.60179      -0.28197
                        -----------------------------------------
Magnitude (a.u.)       :      0.70065
Magnitude (Debye)      :      1.78092

Rotational constants in cm-1:     4.138704     0.799677     0.764274
Rotational constants in MHz : 124075.237716 23973.706439 22912.367826

                             ****ORCA TERMINATED NORMALLY****
TOTAL RUN TIME: 0 days 0 hours 1 minutes 8 seconds 408 msec
