                         Program Version 4.1.2  - RELEASE  -
|  1> #Run DFT-D3 single point of the dimer
|  2> ! wB97X-D3 def2-TZVP TIGHTSCF CHELPG PMODEL PAL8
|  3>
|  4> %base "17-94_DFT_AB"
|  5>
|  6> %scf
|  7> MaxIter 1000
|  8> end
|  9>
| 10> * xyz 0 1
| 11>   C                      6.352193             4.195746             -4.190666
| 12>   O                      5.100575             4.500113             -4.616961
| 13>   H                      4.495087             4.304367             -3.860152
| 14>   H                      7.093230             4.700914             -4.815245
| 15>   H                      6.551793             4.589563             -3.174605
| 16>   H                      6.623159             3.143777             -4.209572
| 17>   C                      9.072314             7.047281             -7.511367
| 18>   O                      9.595746             7.945060             -8.498059
| 19>   H                      10.106585            7.382580             -9.106797
| 20>   H                      8.022053             6.782007             -7.765344
| 21>   H                      9.576808             6.027771             -7.388703
| 22>   H                      9.046050             7.505392             -6.525018
| 23> *
| 24>
| 25> #Run DFT-D3 single point of the molecule with dimer basis set
| 26> $new_job
| 27> %base "17-94_DFT_A"
| 28> ! wB97X-D3 def2-TZVP TIGHTSCF CHELPG PMODEL
| 29>
| 30> %scf
| 31> MaxIter 1000
| 32> end
| 33>
| 34> * xyz 0 1
| 35>   C                      6.352193             4.195746             -4.190666
| 36>   O                      5.100575             4.500113             -4.616961
| 37>   H                      4.495087             4.304367             -3.860152
| 38>   H                      7.093230             4.700914             -4.815245
| 39>   H                      6.551793             4.589563             -3.174605
| 40>   H                      6.623159             3.143777             -4.209572
| 41>   C                    : 9.072314             7.047281             -7.511367
| 42>   O                    : 9.595746             7.945060             -8.498059
| 43>   H                    : 10.106585            7.382580             -9.106797
| 44>   H                    : 8.022053             6.782007             -7.765344
| 45>   H                    : 9.576808             6.027771             -7.388703
| 46>   H                    : 9.046050             7.505392             -6.525018
| 47> *
| 48>
| 49> #Run DFT-D3 single point of the particle with dimer basis set
| 50> $new_job
| 51> %base "17-94_DFT_B"
| 52> ! wB97X-D3 def2-TZVP TIGHTSCF CHELPG PMODEL
| 53>
| 54> %scf
| 55> MaxIter 1000
| 56> end
| 57>
| 58> * xyz 0 1
| 59>   C                    : 6.352193             4.195746             -4.190666
| 60>   O                    : 5.100575             4.500113             -4.616961
| 61>   H                    : 4.495087             4.304367             -3.860152
| 62>   H                    : 7.093230             4.700914             -4.815245
| 63>   H                    : 6.551793             4.589563             -3.174605
| 64>   H                    : 6.623159             3.143777             -4.209572
| 65>   C                      9.072314             7.047281             -7.511367
| 66>   O                      9.595746             7.945060             -8.498059
| 67>   H                      10.106585            7.382580             -9.106797
| 68>   H                      8.022053             6.782007             -7.765344
| 69>   H                      9.576808             6.027771             -7.388703
| 70>   H                      9.046050             7.505392             -6.525018
| 71> *
| 72>
| 73>                          ****END OF INPUT****
 Total Charge           Charge          ....    0
 Multiplicity           Mult            ....    1
 Number of Electrons    NEL             ....   36
Dispersion correction           -0.000791582
FINAL SINGLE POINT ENERGY      -231.465533370308
Dispersion correction           -0.000226117
FINAL SINGLE POINT ENERGY      -115.733132910218

CARTESIAN COORDINATES (ANGSTROEM)
---------------------------------
  C      6.352193    4.195746   -4.190666
  O      5.100575    4.500113   -4.616961
  H      4.495087    4.304367   -3.860152
  H      7.093230    4.700914   -4.815245
  H      6.551793    4.589563   -3.174605
  H      6.623159    3.143777   -4.209572
  C      9.072314    7.047281   -7.511367
  O      9.595746    7.945060   -8.498059
  H     10.106585    7.382580   -9.106797
  H      8.022053    6.782007   -7.765344
  H      9.576808    6.027771   -7.388703
  H      9.046050    7.505392   -6.525018

 Multiplicity           Mult            ....    1
 Number of Electrons    NEL             ....   18
 Basis Dimension        Dim             ....  172

ORBITAL ENERGIES
----------------

  NO   OCC          E(Eh)            E(eV)
   0   2.0000     -19.236098      -523.4408
   1   2.0000     -10.321053      -280.8501
   2   2.0000      -1.131450       -30.7883
   3   2.0000      -0.791051       -21.5256
   4   2.0000      -0.606672       -16.5084
   5   2.0000      -0.534119       -14.5341
   6   2.0000      -0.520510       -14.1638
   7   2.0000      -0.440221       -11.9790
   8   2.0000      -0.373613       -10.1665
   9   0.0000       0.082699         2.2503
  10   0.0000       0.112299         3.0558
  11   0.0000       0.133411         3.6303
  12   0.0000       0.170729         4.6458
  13   0.0000       0.189691         5.1617

MULLIKEN ATOMIC CHARGES
-----------------------
   0 C :   -0.000151
   1 O :    0.000005
   2 H :    0.000000
   3 H :    0.000242
   4 H :    0.000005
   5 H :    0.000002
   6 C :   -0.185164
   7 O :   -0.465894
   8 H :    0.318135
   9 H :    0.104158
  10 H :    0.104992
  11 H :    0.123670
Sum of atomic charges:   -0.0000000

LOEWDIN ATOMIC CHARGES
----------------------
   0 C :   -0.000049
   1 O :   -0.000004
   2 H :   -0.000000
   3 H :   -0.000111
   4 H :   -0.000001
   5 H :   -0.000000
   6 C :   -0.389440
   7 O :   -0.093785
   8 H :    0.178487
   9 H :    0.098124
  10 H :    0.104307
  11 H :    0.102472

  Mayer bond orders larger than 0.1
B(  6-C ,  7-O ) :   1.0090 B(  6-C ,  9-H ) :   0.9752 B(  6-C , 10-H ) :   0.9728
B(  6-C , 11-H ) :   0.9733 B(  7-O ,  8-H ) :   0.8984

Dispersion correction           -0.000275579
FINAL SINGLE POINT ENERGY      -115.732089865130

DIPOLE MOMENT
-------------
                                X             Y             Z
Electronic contribution:      0.71951       1.37251      -1.22604
Nuclear contribution   :     -0.59804      -2.07835       1.23467
                        -----------------------------------------
Total Dipole Moment    :      0.12147      -0.70583       0.00863
                        -----------------------------------------
Magnitude (a.u.)       :      0.71626
Magnitude (Debye)      :      1.82059

Rotational constants in cm-1:     4.225675     0.804015     0.771680
Rotational constants in MHz : 126682.545609 24103.759455 23134.389007

                             ****ORCA TERMINATED NORMALLY****
TOTAL RUN TIME: 0 days 0 hours 1 minutes 5 seconds 330 msec
