                         Program Version 4.1.2  - RELEASE  -
|  1> #Run DFT-D3 single point of the dimer
|  2> ! wB97X-D3 def2-TZVP TIGHTSCF CHELPG PMODEL PAL8
|  3>
|  4> %base "16-157_DFT_AB"
|  5>
|  6> %scf
|  7> MaxIter 1000
|  8> end
|  9>
| 10> * xyz 0 1
| 11>   C                      1.713433             -5.196340            6.770740
| 12>   O                      1.791775             -5.028510            8.127956
| 13>   H                      1.810049             -5.951920            8.498394
| 14>   H                      1.500596             -4.238577            6.340873
| 15>   H                      2.666201             -5.539737            6.312505
| 16>   H                      0.880092             -5.841664            6.551515
| 17>   C                      5.692317             -5.416236            10.598718
| 18>   O                      4.594151             -6.221990            10.637493
| 19>   H                      4.007334             -5.770975            10.020073
| 20>   H                      6.214354             -5.317533            11.589979
| 21>   H                      6.364559             -5.729289            9.777125
| 22>   H                      5.299963             -4.342257            10.394742
| 23> *
| 24>
| 25> #Run DFT-D3 single point of the molecule with dimer basis set
| 26> $new_job
| 27> %base "16-157_DFT_A"
| 28> ! wB97X-D3 def2-TZVP TIGHTSCF CHELPG PMODEL
| 29>
| 30> %scf
| 31> MaxIter 1000
| 32> end
| 33>
| 34> * xyz 0 1
| 35>   C                      1.713433             -5.196340            6.770740
| 36>   O                      1.791775             -5.028510            8.127956
| 37>   H                      1.810049             -5.951920            8.498394
| 38>   H                      1.500596             -4.238577            6.340873
| 39>   H                      2.666201             -5.539737            6.312505
| 40>   H                      0.880092             -5.841664            6.551515
| 41>   C                    : 5.692317             -5.416236            10.598718
| 42>   O                    : 4.594151             -6.221990            10.637493
| 43>   H                    : 4.007334             -5.770975            10.020073
| 44>   H                    : 6.214354             -5.317533            11.589979
| 45>   H                    : 6.364559             -5.729289            9.777125
| 46>   H                    : 5.299963             -4.342257            10.394742
| 47> *
| 48>
| 49> #Run DFT-D3 single point of the particle with dimer basis set
| 50> $new_job
| 51> %base "16-157_DFT_B"
| 52> ! wB97X-D3 def2-TZVP TIGHTSCF CHELPG PMODEL
| 53>
| 54> %scf
| 55> MaxIter 1000
| 56> end
| 57>
| 58> * xyz 0 1
| 59>   C                    : 1.713433             -5.196340            6.770740
| 60>   O                    : 1.791775             -5.028510            8.127956
| 61>   H                    : 1.810049             -5.951920            8.498394
| 62>   H                    : 1.500596             -4.238577            6.340873
| 63>   H                    : 2.666201             -5.539737            6.312505
| 64>   H                    : 0.880092             -5.841664            6.551515
| 65>   C                      5.692317             -5.416236            10.598718
| 66>   O                      4.594151             -6.221990            10.637493
| 67>   H                      4.007334             -5.770975            10.020073
| 68>   H                      6.214354             -5.317533            11.589979
| 69>   H                      6.364559             -5.729289            9.777125
| 70>   H                      5.299963             -4.342257            10.394742
| 71> *
| 72>
| 73>                          ****END OF INPUT****
 Total Charge           Charge          ....    0
 Multiplicity           Mult            ....    1
 Number of Electrons    NEL             ....   36
Dispersion correction           -0.001067276
FINAL SINGLE POINT ENERGY      -231.461935753201
Dispersion correction           -0.000210349
FINAL SINGLE POINT ENERGY      -115.733025111332

CARTESIAN COORDINATES (ANGSTROEM)
---------------------------------
  C      1.713433   -5.196340    6.770740
  O      1.791775   -5.028510    8.127956
  H      1.810049   -5.951920    8.498394
  H      1.500596   -4.238577    6.340873
  H      2.666201   -5.539737    6.312505
  H      0.880092   -5.841664    6.551515
  C      5.692317   -5.416236   10.598718
  O      4.594151   -6.221990   10.637493
  H      4.007334   -5.770975   10.020073
  H      6.214354   -5.317533   11.589979
  H      6.364559   -5.729289    9.777125
  H      5.299963   -4.342257   10.394742

 Multiplicity           Mult            ....    1
 Number of Electrons    NEL             ....   18
 Basis Dimension        Dim             ....  172

ORBITAL ENERGIES
----------------

  NO   OCC          E(Eh)            E(eV)
   0   2.0000     -19.231735      -523.3221
   1   2.0000     -10.321458      -280.8612
   2   2.0000      -1.159187       -31.5431
   3   2.0000      -0.780191       -21.2301
   4   2.0000      -0.616919       -16.7872
   5   2.0000      -0.554294       -15.0831
   6   2.0000      -0.531552       -14.4643
   7   2.0000      -0.424012       -11.5379
   8   2.0000      -0.372344       -10.1320
   9   0.0000       0.072741         1.9794
  10   0.0000       0.113850         3.0980
  11   0.0000       0.149548         4.0694
  12   0.0000       0.183507         4.9935
  13   0.0000       0.187264         5.0957

MULLIKEN ATOMIC CHARGES
-----------------------
   0 C :   -0.000085
   1 O :   -0.000170
   2 H :   -0.000181
   3 H :   -0.000000
   4 H :   -0.000040
   5 H :    0.000005
   6 C :   -0.176392
   7 O :   -0.446006
   8 H :    0.323316
   9 H :    0.114538
  10 H :    0.101323
  11 H :    0.083693
Sum of atomic charges:    0.0000000

LOEWDIN ATOMIC CHARGES
----------------------
   0 C :   -0.000151
   1 O :   -0.000849
   2 H :   -0.001220
   3 H :   -0.000002
   4 H :   -0.000024
   5 H :   -0.000001
   6 C :   -0.441040
   7 O :   -0.043298
   8 H :    0.181897
   9 H :    0.108417
  10 H :    0.094822
  11 H :    0.101450

  Mayer bond orders larger than 0.1
B(  6-C ,  7-O ) :   1.0095 B(  6-C ,  9-H ) :   0.9675 B(  6-C , 10-H ) :   0.9688
B(  6-C , 11-H ) :   0.9973 B(  7-O ,  8-H ) :   0.8972

Dispersion correction           -0.000210553
FINAL SINGLE POINT ENERGY      -115.726449912277

DIPOLE MOMENT
-------------
                                X             Y             Z
Electronic contribution:     -1.32966      -1.36137       0.19243
Nuclear contribution   :      1.32578       1.91767      -0.57478
                        -----------------------------------------
Total Dipole Moment    :     -0.00388       0.55630      -0.38235
                        -----------------------------------------
Magnitude (a.u.)       :      0.67504
Magnitude (Debye)      :      1.71581

Rotational constants in cm-1:     3.982044     0.885540     0.856028
Rotational constants in MHz : 119378.669227 26547.827123 25663.075954

                             ****ORCA TERMINATED NORMALLY****
TOTAL RUN TIME: 0 days 0 hours 1 minutes 0 seconds 785 msec
