                         Program Version 4.1.2  - RELEASE  -
|  1> #Run DFT-D3 single point of the dimer
|  2> ! wB97X-D3 def2-TZVP TIGHTSCF CHELPG PMODEL PAL8
|  3>
|  4> %base "14-165_DFT_AB"
|  5>
|  6> %scf
|  7> MaxIter 1000
|  8> end
|  9>
| 10> * xyz 0 1
| 11>   C                      -9.205169            6.910443             -3.179025
| 12>   O                      -8.021357            7.648472             -2.983924
| 13>   H                      -8.204361            8.311799             -2.278597
| 14>   H                      -9.929243            7.448107             -3.819191
| 15>   H                      -9.029607            5.992954             -3.755281
| 16>   H                      -9.681577            6.510457             -2.310331
| 17>   C                      -7.738484            10.361660            -5.552580
| 18>   O                      -6.863904            9.779337             -4.522184
| 19>   H                      -7.368457            9.147472             -3.992070
| 20>   H                      -7.403363            11.428585            -5.831735
| 21>   H                      -7.648731            9.861242             -6.512678
| 22>   H                      -8.867734            10.356978            -5.293214
| 23> *
| 24>
| 25> #Run DFT-D3 single point of the molecule with dimer basis set
| 26> $new_job
| 27> %base "14-165_DFT_A"
| 28> ! wB97X-D3 def2-TZVP TIGHTSCF CHELPG PMODEL
| 29>
| 30> %scf
| 31> MaxIter 1000
| 32> end
| 33>
| 34> * xyz 0 1
| 35>   C                      -9.205169            6.910443             -3.179025
| 36>   O                      -8.021357            7.648472             -2.983924
| 37>   H                      -8.204361            8.311799             -2.278597
| 38>   H                      -9.929243            7.448107             -3.819191
| 39>   H                      -9.029607            5.992954             -3.755281
| 40>   H                      -9.681577            6.510457             -2.310331
| 41>   C                    : -7.738484            10.361660            -5.552580
| 42>   O                    : -6.863904            9.779337             -4.522184
| 43>   H                    : -7.368457            9.147472             -3.992070
| 44>   H                    : -7.403363            11.428585            -5.831735
| 45>   H                    : -7.648731            9.861242             -6.512678
| 46>   H                    : -8.867734            10.356978            -5.293214
| 47> *
| 48>
| 49> #Run DFT-D3 single point of the particle with dimer basis set
| 50> $new_job
| 51> %base "14-165_DFT_B"
| 52> ! wB97X-D3 def2-TZVP TIGHTSCF CHELPG PMODEL
| 53>
| 54> %scf
| 55> MaxIter 1000
| 56> end
| 57>
| 58> * xyz 0 1
| 59>   C                    : -9.205169            6.910443             -3.179025
| 60>   O                    : -8.021357            7.648472             -2.983924
| 61>   H                    : -8.204361            8.311799             -2.278597
| 62>   H                    : -9.929243            7.448107             -3.819191
| 63>   H                    : -9.029607            5.992954             -3.755281
| 64>   H                    : -9.681577            6.510457             -2.310331
| 65>   C                      -7.738484            10.361660            -5.552580
| 66>   O                      -6.863904            9.779337             -4.522184
| 67>   H                      -7.368457            9.147472             -3.992070
| 68>   H                      -7.403363            11.428585            -5.831735
| 69>   H                      -7.648731            9.861242             -6.512678
| 70>   H                      -8.867734            10.356978            -5.293214
| 71> *
| 72>
| 73>                          ****END OF INPUT****
 Total Charge           Charge          ....    0
 Multiplicity           Mult            ....    1
 Number of Electrons    NEL             ....   36
Dispersion correction           -0.001751666
FINAL SINGLE POINT ENERGY      -231.466254375411
Dispersion correction           -0.000258001
FINAL SINGLE POINT ENERGY      -115.733344401773

CARTESIAN COORDINATES (ANGSTROEM)
---------------------------------
  C     -9.205169    6.910443   -3.179025
  O     -8.021357    7.648472   -2.983924
  H     -8.204361    8.311799   -2.278597
  H     -9.929243    7.448107   -3.819191
  H     -9.029607    5.992954   -3.755281
  H     -9.681577    6.510457   -2.310331
  C     -7.738484   10.361660   -5.552580
  O     -6.863904    9.779337   -4.522184
  H     -7.368457    9.147472   -3.992070
  H     -7.403363   11.428585   -5.831735
  H     -7.648731    9.861242   -6.512678
  H     -8.867734   10.356978   -5.293214

 Multiplicity           Mult            ....    1
 Number of Electrons    NEL             ....   18
 Basis Dimension        Dim             ....  172

ORBITAL ENERGIES
----------------

  NO   OCC          E(Eh)            E(eV)
   0   2.0000     -19.235315      -523.4195
   1   2.0000     -10.331424      -281.1323
   2   2.0000      -1.119695       -30.4685
   3   2.0000      -0.791668       -21.5424
   4   2.0000      -0.600707       -16.3461
   5   2.0000      -0.527932       -14.3658
   6   2.0000      -0.515896       -14.0383
   7   2.0000      -0.436407       -11.8752
   8   2.0000      -0.375320       -10.2130
   9   0.0000       0.068416         1.8617
  10   0.0000       0.131287         3.5725
  11   0.0000       0.136139         3.7045
  12   0.0000       0.174297         4.7429
  13   0.0000       0.181224         4.9314

MULLIKEN ATOMIC CHARGES
-----------------------
   0 C :   -0.002181
   1 O :   -0.002243
   2 H :   -0.001298
   3 H :    0.000205
   4 H :    0.000152
   5 H :   -0.000068
   6 C :   -0.190554
   7 O :   -0.472772
   8 H :    0.315458
   9 H :    0.121600
  10 H :    0.118449
  11 H :    0.113250
Sum of atomic charges:    0.0000000

LOEWDIN ATOMIC CHARGES
----------------------
   0 C :   -0.003082
   1 O :   -0.020281
   2 H :   -0.004370
   3 H :   -0.000321
   4 H :   -0.000060
   5 H :   -0.000078
   6 C :   -0.365118
   7 O :   -0.105645
   8 H :    0.179782
   9 H :    0.116698
  10 H :    0.093591
  11 H :    0.108883

  Mayer bond orders larger than 0.1
B(  6-C ,  7-O ) :   0.9948 B(  6-C ,  9-H ) :   0.9734 B(  6-C , 10-H ) :   0.9695
B(  6-C , 11-H ) :   0.9704 B(  7-O ,  8-H ) :   0.9028

Dispersion correction           -0.000309599
FINAL SINGLE POINT ENERGY      -115.727588934505

DIPOLE MOMENT
-------------
                                X             Y             Z
Electronic contribution:      1.22792      -0.71647       1.33123
Nuclear contribution   :     -1.90634       0.55212      -1.44719
                        -----------------------------------------
Total Dipole Moment    :     -0.67843      -0.16435      -0.11596
                        -----------------------------------------
Magnitude (a.u.)       :      0.70762
Magnitude (Debye)      :      1.79862

Rotational constants in cm-1:     4.164977     0.765727     0.729146
Rotational constants in MHz : 124862.866007 22955.903968 21859.234306

                             ****ORCA TERMINATED NORMALLY****
TOTAL RUN TIME: 0 days 0 hours 1 minutes 11 seconds 228 msec
