                         Program Version 4.1.2  - RELEASE  -
|  1> #Run DFT-D3 single point of the dimer
|  2> ! wB97X-D3 def2-TZVP TIGHTSCF CHELPG PMODEL PAL8
|  3>
|  4> %base "13-214_DFT_AB"
|  5>
|  6> %scf
|  7> MaxIter 1000
|  8> end
|  9>
| 10> * xyz 0 1
| 11>   C                      4.697885             2.676830             -3.820010
| 12>   O                      3.845238             1.593184             -3.666598
| 13>   H                      3.877542             1.067309             -4.520169
| 14>   H                      4.446421             3.201020             -4.783931
| 15>   H                      4.667096             3.453700             -3.069882
| 16>   H                      5.759132             2.426030             -3.948488
| 17>   C                      3.694090             0.378957             -6.877183
| 18>   O                      2.913124             -0.000757            -5.751815
| 19>   H                      1.927826             -0.047381            -5.934338
| 20>   H                      3.797572             -0.408838            -7.616210
| 21>   H                      3.427840             1.291935             -7.408147
| 22>   H                      4.631567             0.640459             -6.494055
| 23> *
| 24>
| 25> #Run DFT-D3 single point of the molecule with dimer basis set
| 26> $new_job
| 27> %base "13-214_DFT_A"
| 28> ! wB97X-D3 def2-TZVP TIGHTSCF CHELPG PMODEL
| 29>
| 30> %scf
| 31> MaxIter 1000
| 32> end
| 33>
| 34> * xyz 0 1
| 35>   C                      4.697885             2.676830             -3.820010
| 36>   O                      3.845238             1.593184             -3.666598
| 37>   H                      3.877542             1.067309             -4.520169
| 38>   H                      4.446421             3.201020             -4.783931
| 39>   H                      4.667096             3.453700             -3.069882
| 40>   H                      5.759132             2.426030             -3.948488
| 41>   C                    : 3.694090             0.378957             -6.877183
| 42>   O                    : 2.913124             -0.000757            -5.751815
| 43>   H                    : 1.927826             -0.047381            -5.934338
| 44>   H                    : 3.797572             -0.408838            -7.616210
| 45>   H                    : 3.427840             1.291935             -7.408147
| 46>   H                    : 4.631567             0.640459             -6.494055
| 47> *
| 48>
| 49> #Run DFT-D3 single point of the particle with dimer basis set
| 50> $new_job
| 51> %base "13-214_DFT_B"
| 52> ! wB97X-D3 def2-TZVP TIGHTSCF CHELPG PMODEL
| 53>
| 54> %scf
| 55> MaxIter 1000
| 56> end
| 57>
| 58> * xyz 0 1
| 59>   C                    : 4.697885             2.676830             -3.820010
| 60>   O                    : 3.845238             1.593184             -3.666598
| 61>   H                    : 3.877542             1.067309             -4.520169
| 62>   H                    : 4.446421             3.201020             -4.783931
| 63>   H                    : 4.667096             3.453700             -3.069882
| 64>   H                    : 5.759132             2.426030             -3.948488
| 65>   C                      3.694090             0.378957             -6.877183
| 66>   O                      2.913124             -0.000757            -5.751815
| 67>   H                      1.927826             -0.047381            -5.934338
| 68>   H                      3.797572             -0.408838            -7.616210
| 69>   H                      3.427840             1.291935             -7.408147
| 70>   H                      4.631567             0.640459             -6.494055
| 71> *
| 72>
| 73>                          ****END OF INPUT****
 Total Charge           Charge          ....    0
 Multiplicity           Mult            ....    1
 Number of Electrons    NEL             ....   36
Dispersion correction           -0.001999536
FINAL SINGLE POINT ENERGY      -231.466493872475
Dispersion correction           -0.000238572
FINAL SINGLE POINT ENERGY      -115.730644175393

CARTESIAN COORDINATES (ANGSTROEM)
---------------------------------
  C      4.697885    2.676830   -3.820010
  O      3.845238    1.593184   -3.666598
  H      3.877542    1.067309   -4.520169
  H      4.446421    3.201020   -4.783931
  H      4.667096    3.453700   -3.069882
  H      5.759132    2.426030   -3.948488
  C      3.694090    0.378957   -6.877183
  O      2.913124   -0.000757   -5.751815
  H      1.927826   -0.047381   -5.934338
  H      3.797572   -0.408838   -7.616210
  H      3.427840    1.291935   -7.408147
  H      4.631567    0.640459   -6.494055

 Multiplicity           Mult            ....    1
 Number of Electrons    NEL             ....   18
 Basis Dimension        Dim             ....  172

ORBITAL ENERGIES
----------------

  NO   OCC          E(Eh)            E(eV)
   0   2.0000     -19.234293      -523.3917
   1   2.0000     -10.306897      -280.4649
   2   2.0000      -1.123103       -30.5612
   3   2.0000      -0.802053       -21.8250
   4   2.0000      -0.608853       -16.5677
   5   2.0000      -0.544594       -14.8192
   6   2.0000      -0.520400       -14.1608
   7   2.0000      -0.428364       -11.6564
   8   2.0000      -0.375698       -10.2233
   9   0.0000       0.093529         2.5451
  10   0.0000       0.119356         3.2478
  11   0.0000       0.151402         4.1198
  12   0.0000       0.186796         5.0830
  13   0.0000       0.203590         5.5400

MULLIKEN ATOMIC CHARGES
-----------------------
   0 C :   -0.002264
   1 O :    0.000398
   2 H :   -0.002357
   3 H :    0.000392
   4 H :   -0.000042
   5 H :   -0.000192
   6 C :   -0.152056
   7 O :   -0.489830
   8 H :    0.316961
   9 H :    0.107540
  10 H :    0.100472
  11 H :    0.120977
Sum of atomic charges:   -0.0000000

LOEWDIN ATOMIC CHARGES
----------------------
   0 C :   -0.002313
   1 O :   -0.009334
   2 H :   -0.042217
   3 H :   -0.000307
   4 H :   -0.000020
   5 H :   -0.000154
   6 C :   -0.370482
   7 O :   -0.058477
   8 H :    0.189519
   9 H :    0.094883
  10 H :    0.095814
  11 H :    0.103087

  Mayer bond orders larger than 0.1
B(  6-C ,  7-O ) :   0.9925 B(  6-C ,  9-H ) :   0.9750 B(  6-C , 10-H ) :   0.9709
B(  6-C , 11-H ) :   0.9818 B(  7-O ,  8-H ) :   0.8875

Dispersion correction           -0.000278146
FINAL SINGLE POINT ENERGY      -115.731243614785

DIPOLE MOMENT
-------------
                                X             Y             Z
Electronic contribution:     -0.93085      -0.53480       1.48317
Nuclear contribution   :      0.64484       0.67619      -2.05447
                        -----------------------------------------
Total Dipole Moment    :     -0.28601       0.14138      -0.57130
                        -----------------------------------------
Magnitude (a.u.)       :      0.65435
Magnitude (Debye)      :      1.66322

Rotational constants in cm-1:     4.534588     0.807961     0.786667
Rotational constants in MHz : 135943.514874 24222.068177 23583.672579

                             ****ORCA TERMINATED NORMALLY****
TOTAL RUN TIME: 0 days 0 hours 1 minutes 10 seconds 425 msec
