                         Program Version 4.1.2  - RELEASE  -
|  1> #Run DFT-D3 single point of the dimer
|  2> ! wB97X-D3 def2-TZVP TIGHTSCF CHELPG PMODEL PAL8
|  3>
|  4> %base "19-103_DFT_AB"
|  5>
|  6> %scf
|  7> MaxIter 1000
|  8> end
|  9>
| 10> * xyz 0 1
| 11>   C                      6.919625             2.237632             2.945838
| 12>   O                      7.105568             3.614791             3.004067
| 13>   H                      7.927648             3.903414             2.617584
| 14>   H                      7.422164             1.719098             3.729250
| 15>   H                      5.841692             1.966989             3.041488
| 16>   H                      7.318918             1.785904             1.953686
| 17>   C                      8.513817             3.675508             -0.383568
| 18>   O                      9.143687             3.578404             0.864481
| 19>   H                      9.463190             2.722025             0.901324
| 20>   H                      8.877662             2.865182             -1.066605
| 21>   H                      7.428917             3.486082             -0.322136
| 22>   H                      8.817236             4.613234             -0.872877
| 23> *
| 24>
| 25> #Run DFT-D3 single point of the molecule with dimer basis set
| 26> $new_job
| 27> %base "19-103_DFT_A"
| 28> ! wB97X-D3 def2-TZVP TIGHTSCF CHELPG PMODEL
| 29>
| 30> %scf
| 31> MaxIter 1000
| 32> end
| 33>
| 34> * xyz 0 1
| 35>   C                      6.919625             2.237632             2.945838
| 36>   O                      7.105568             3.614791             3.004067
| 37>   H                      7.927648             3.903414             2.617584
| 38>   H                      7.422164             1.719098             3.729250
| 39>   H                      5.841692             1.966989             3.041488
| 40>   H                      7.318918             1.785904             1.953686
| 41>   C                    : 8.513817             3.675508             -0.383568
| 42>   O                    : 9.143687             3.578404             0.864481
| 43>   H                    : 9.463190             2.722025             0.901324
| 44>   H                    : 8.877662             2.865182             -1.066605
| 45>   H                    : 7.428917             3.486082             -0.322136
| 46>   H                    : 8.817236             4.613234             -0.872877
| 47> *
| 48>
| 49> #Run DFT-D3 single point of the particle with dimer basis set
| 50> $new_job
| 51> %base "19-103_DFT_B"
| 52> ! wB97X-D3 def2-TZVP TIGHTSCF CHELPG PMODEL
| 53>
| 54> %scf
| 55> MaxIter 1000
| 56> end
| 57>
| 58> * xyz 0 1
| 59>   C                    : 6.919625             2.237632             2.945838
| 60>   O                    : 7.105568             3.614791             3.004067
| 61>   H                    : 7.927648             3.903414             2.617584
| 62>   H                    : 7.422164             1.719098             3.729250
| 63>   H                    : 5.841692             1.966989             3.041488
| 64>   H                    : 7.318918             1.785904             1.953686
| 65>   C                      8.513817             3.675508             -0.383568
| 66>   O                      9.143687             3.578404             0.864481
| 67>   H                      9.463190             2.722025             0.901324
| 68>   H                      8.877662             2.865182             -1.066605
| 69>   H                      7.428917             3.486082             -0.322136
| 70>   H                      8.817236             4.613234             -0.872877
| 71> *
| 72>
| 73>                          ****END OF INPUT****
 Total Charge           Charge          ....    0
 Multiplicity           Mult            ....    1
 Number of Electrons    NEL             ....   36
Dispersion correction           -0.002204036
FINAL SINGLE POINT ENERGY      -231.471840060631
Dispersion correction           -0.000256335
FINAL SINGLE POINT ENERGY      -115.733146960442

CARTESIAN COORDINATES (ANGSTROEM)
---------------------------------
  C      6.919625    2.237632    2.945838
  O      7.105568    3.614791    3.004067
  H      7.927648    3.903414    2.617584
  H      7.422164    1.719098    3.729250
  H      5.841692    1.966989    3.041488
  H      7.318918    1.785904    1.953686
  C      8.513817    3.675508   -0.383568
  O      9.143687    3.578404    0.864481
  H      9.463190    2.722025    0.901324
  H      8.877662    2.865182   -1.066605
  H      7.428917    3.486082   -0.322136
  H      8.817236    4.613234   -0.872877

 Multiplicity           Mult            ....    1
 Number of Electrons    NEL             ....   18
 Basis Dimension        Dim             ....  172

ORBITAL ENERGIES
----------------

  NO   OCC          E(Eh)            E(eV)
   0   2.0000     -19.228464      -523.2331
   1   2.0000     -10.317636      -280.7572
   2   2.0000      -1.153503       -31.3884
   3   2.0000      -0.794844       -21.6288
   4   2.0000      -0.620613       -16.8877
   5   2.0000      -0.550308       -14.9746
   6   2.0000      -0.523654       -14.2494
   7   2.0000      -0.433367       -11.7925
   8   2.0000      -0.377998       -10.2859
   9   0.0000       0.089499         2.4354
  10   0.0000       0.131059         3.5663
  11   0.0000       0.154372         4.2007
  12   0.0000       0.182610         4.9691
  13   0.0000       0.190960         5.1963

MULLIKEN ATOMIC CHARGES
-----------------------
   0 C :   -0.001928
   1 O :    0.000897
   2 H :   -0.005127
   3 H :    0.000055
   4 H :   -0.000579
   5 H :   -0.007266
   6 C :   -0.178882
   7 O :   -0.449973
   8 H :    0.308928
   9 H :    0.099518
  10 H :    0.110677
  11 H :    0.123680
Sum of atomic charges:    0.0000000

LOEWDIN ATOMIC CHARGES
----------------------
   0 C :   -0.008005
   1 O :   -0.004502
   2 H :   -0.026400
   3 H :   -0.000141
   4 H :   -0.000108
   5 H :   -0.005114
   6 C :   -0.394826
   7 O :   -0.010978
   8 H :    0.142895
   9 H :    0.101075
  10 H :    0.098780
  11 H :    0.107323

  Mayer bond orders larger than 0.1
B(  6-C ,  7-O ) :   0.9895 B(  6-C ,  9-H ) :   0.9857 B(  6-C , 10-H ) :   0.9698
B(  6-C , 11-H ) :   0.9748 B(  7-O ,  8-H ) :   0.9099

Dispersion correction           -0.000230192
FINAL SINGLE POINT ENERGY      -115.731745146867

DIPOLE MOMENT
-------------
                                X             Y             Z
Electronic contribution:      0.73850       0.11755       1.71221
Nuclear contribution   :     -0.73973      -0.65114      -2.18672
                        -----------------------------------------
Total Dipole Moment    :     -0.00123      -0.53358      -0.47452
                        -----------------------------------------
Magnitude (a.u.)       :      0.71406
Magnitude (Debye)      :      1.81499

Rotational constants in cm-1:     4.238855     0.844484     0.821091
Rotational constants in MHz : 127077.689174 25316.979499 24615.693291

                             ****ORCA TERMINATED NORMALLY****
TOTAL RUN TIME: 0 days 0 hours 0 minutes 54 seconds 279 msec
