                         Program Version 4.1.2  - RELEASE  -
|  1> #Run DFT-D3 single point of the dimer
|  2> ! wB97X-D3 def2-TZVP TIGHTSCF CHELPG PMODEL PAL8
|  3>
|  4> %base "19-176_DFT_AB"
|  5>
|  6> %scf
|  7> MaxIter 1000
|  8> end
|  9>
| 10> * xyz 0 1
| 11>   C                      -0.421964            8.237121             -4.624621
| 12>   O                      0.507084             7.782462             -5.533117
| 13>   H                      0.845890             8.541458             -5.972492
| 14>   H                      -0.959687            7.461524             -3.990407
| 15>   H                      0.087536             9.082407             -4.138351
| 16>   H                      -1.316037            8.670810             -5.116080
| 17>   C                      1.958789             7.786652             -8.516235
| 18>   O                      2.687530             7.396123             -7.329947
| 19>   H                      2.140262             7.153206             -6.586185
| 20>   H                      1.182791             8.517347             -8.240774
| 21>   H                      2.628012             8.296971             -9.136527
| 22>   H                      1.555513             6.941600             -9.075943
| 23> *
| 24>
| 25> #Run DFT-D3 single point of the molecule with dimer basis set
| 26> $new_job
| 27> %base "19-176_DFT_A"
| 28> ! wB97X-D3 def2-TZVP TIGHTSCF CHELPG PMODEL
| 29>
| 30> %scf
| 31> MaxIter 1000
| 32> end
| 33>
| 34> * xyz 0 1
| 35>   C                      -0.421964            8.237121             -4.624621
| 36>   O                      0.507084             7.782462             -5.533117
| 37>   H                      0.845890             8.541458             -5.972492
| 38>   H                      -0.959687            7.461524             -3.990407
| 39>   H                      0.087536             9.082407             -4.138351
| 40>   H                      -1.316037            8.670810             -5.116080
| 41>   C                    : 1.958789             7.786652             -8.516235
| 42>   O                    : 2.687530             7.396123             -7.329947
| 43>   H                    : 2.140262             7.153206             -6.586185
| 44>   H                    : 1.182791             8.517347             -8.240774
| 45>   H                    : 2.628012             8.296971             -9.136527
| 46>   H                    : 1.555513             6.941600             -9.075943
| 47> *
| 48>
| 49> #Run DFT-D3 single point of the particle with dimer basis set
| 50> $new_job
| 51> %base "19-176_DFT_B"
| 52> ! wB97X-D3 def2-TZVP TIGHTSCF CHELPG PMODEL
| 53>
| 54> %scf
| 55> MaxIter 1000
| 56> end
| 57>
| 58> * xyz 0 1
| 59>   C                    : -0.421964            8.237121             -4.624621
| 60>   O                    : 0.507084             7.782462             -5.533117
| 61>   H                    : 0.845890             8.541458             -5.972492
| 62>   H                    : -0.959687            7.461524             -3.990407
| 63>   H                    : 0.087536             9.082407             -4.138351
| 64>   H                    : -1.316037            8.670810             -5.116080
| 65>   C                      1.958789             7.786652             -8.516235
| 66>   O                      2.687530             7.396123             -7.329947
| 67>   H                      2.140262             7.153206             -6.586185
| 68>   H                      1.182791             8.517347             -8.240774
| 69>   H                      2.628012             8.296971             -9.136527
| 70>   H                      1.555513             6.941600             -9.075943
| 71> *
| 72>
| 73>                          ****END OF INPUT****
 Total Charge           Charge          ....    0
 Multiplicity           Mult            ....    1
 Number of Electrons    NEL             ....   36
Dispersion correction           -0.001698636
FINAL SINGLE POINT ENERGY      -231.463128550690
Dispersion correction           -0.000216843
FINAL SINGLE POINT ENERGY      -115.724705690416

CARTESIAN COORDINATES (ANGSTROEM)
---------------------------------
  C     -0.421964    8.237121   -4.624621
  O      0.507084    7.782462   -5.533117
  H      0.845890    8.541458   -5.972492
  H     -0.959687    7.461524   -3.990407
  H      0.087536    9.082407   -4.138351
  H     -1.316037    8.670810   -5.116080
  C      1.958789    7.786652   -8.516235
  O      2.687530    7.396123   -7.329947
  H      2.140262    7.153206   -6.586185
  H      1.182791    8.517347   -8.240774
  H      2.628012    8.296971   -9.136527
  H      1.555513    6.941600   -9.075943

 Multiplicity           Mult            ....    1
 Number of Electrons    NEL             ....   18
 Basis Dimension        Dim             ....  172

ORBITAL ENERGIES
----------------

  NO   OCC          E(Eh)            E(eV)
   0   2.0000     -19.226247      -523.1728
   1   2.0000     -10.311976      -280.6031
   2   2.0000      -1.122573       -30.5468
   3   2.0000      -0.804140       -21.8818
   4   2.0000      -0.603878       -16.4324
   5   2.0000      -0.542811       -14.7706
   6   2.0000      -0.529442       -14.4069
   7   2.0000      -0.426452       -11.6044
   8   2.0000      -0.375775       -10.2253
   9   0.0000       0.076081         2.0703
  10   0.0000       0.130009         3.5377
  11   0.0000       0.149784         4.0758
  12   0.0000       0.177694         4.8353
  13   0.0000       0.192456         5.2370

MULLIKEN ATOMIC CHARGES
-----------------------
   0 C :   -0.001001
   1 O :   -0.006216
   2 H :   -0.005640
   3 H :    0.000049
   4 H :   -0.000100
   5 H :   -0.000001
   6 C :   -0.155366
   7 O :   -0.492658
   8 H :    0.319709
   9 H :    0.106029
  10 H :    0.125945
  11 H :    0.109249
Sum of atomic charges:    0.0000000

LOEWDIN ATOMIC CHARGES
----------------------
   0 C :   -0.001027
   1 O :   -0.018005
   2 H :   -0.010758
   3 H :   -0.000026
   4 H :   -0.000039
   5 H :   -0.000029
   6 C :   -0.345994
   7 O :   -0.085835
   8 H :    0.165639
   9 H :    0.101163
  10 H :    0.097984
  11 H :    0.096927

  Mayer bond orders larger than 0.1
B(  6-C ,  7-O ) :   0.9887 B(  6-C ,  9-H ) :   0.9781 B(  6-C , 10-H ) :   0.9744
B(  6-C , 11-H ) :   0.9764 B(  7-O ,  8-H ) :   0.8988

Dispersion correction           -0.000264878
FINAL SINGLE POINT ENERGY      -115.734173412188

DIPOLE MOMENT
-------------
                                X             Y             Z
Electronic contribution:      0.98283      -0.50674       1.32828
Nuclear contribution   :     -1.62942       0.53422      -1.37349
                        -----------------------------------------
Total Dipole Moment    :     -0.64659       0.02748      -0.04521
                        -----------------------------------------
Magnitude (a.u.)       :      0.64875
Magnitude (Debye)      :      1.64900

Rotational constants in cm-1:     4.450427     0.794508     0.777134
Rotational constants in MHz : 133420.455618 23818.758684 23297.888948

                             ****ORCA TERMINATED NORMALLY****
TOTAL RUN TIME: 0 days 0 hours 1 minutes 34 seconds 255 msec
