                         Program Version 4.1.2  - RELEASE  -
|  1> #Run DFT-D3 single point of the dimer
|  2> ! wB97X-D3 def2-TZVP TIGHTSCF CHELPG PMODEL PAL8
|  3>
|  4> %base "6-57_DFT_AB"
|  5>
|  6> %scf
|  7> MaxIter 1000
|  8> end
|  9>
| 10> * xyz 0 1
| 11>   C                      0.196325             -0.976893            10.050342
| 12>   O                      1.433650             -0.253384            9.974844
| 13>   H                      1.432420             0.446621             10.619602
| 14>   H                      -0.611933            -0.325739            10.403889
| 15>   H                      -0.103297            -1.288178            8.974143
| 16>   H                      0.344229             -1.799503            10.711079
| 17>   C                      2.296306             -2.463585            5.965098
| 18>   O                      3.335485             -1.459262            6.217298
| 19>   H                      3.961326             -1.631534            6.948087
| 20>   H                      1.859094             -2.983333            6.852082
| 21>   H                      1.470109             -2.070292            5.401378
| 22>   H                      2.752099             -3.228727            5.416353
| 23> *
| 24>
| 25> #Run DFT-D3 single point of the molecule with dimer basis set
| 26> $new_job
| 27> %base "6-57_DFT_A"
| 28> ! wB97X-D3 def2-TZVP TIGHTSCF CHELPG PMODEL
| 29>
| 30> %scf
| 31> MaxIter 1000
| 32> end
| 33>
| 34> * xyz 0 1
| 35>   C                      0.196325             -0.976893            10.050342
| 36>   O                      1.433650             -0.253384            9.974844
| 37>   H                      1.432420             0.446621             10.619602
| 38>   H                      -0.611933            -0.325739            10.403889
| 39>   H                      -0.103297            -1.288178            8.974143
| 40>   H                      0.344229             -1.799503            10.711079
| 41>   C                    : 2.296306             -2.463585            5.965098
| 42>   O                    : 3.335485             -1.459262            6.217298
| 43>   H                    : 3.961326             -1.631534            6.948087
| 44>   H                    : 1.859094             -2.983333            6.852082
| 45>   H                    : 1.470109             -2.070292            5.401378
| 46>   H                    : 2.752099             -3.228727            5.416353
| 47> *
| 48>
| 49> #Run DFT-D3 single point of the particle with dimer basis set
| 50> $new_job
| 51> %base "6-57_DFT_B"
| 52> ! wB97X-D3 def2-TZVP TIGHTSCF CHELPG PMODEL
| 53>
| 54> %scf
| 55> MaxIter 1000
| 56> end
| 57>
| 58> * xyz 0 1
| 59>   C                    : 0.196325             -0.976893            10.050342
| 60>   O                    : 1.433650             -0.253384            9.974844
| 61>   H                    : 1.432420             0.446621             10.619602
| 62>   H                    : -0.611933            -0.325739            10.403889
| 63>   H                    : -0.103297            -1.288178            8.974143
| 64>   H                    : 0.344229             -1.799503            10.711079
| 65>   C                      2.296306             -2.463585            5.965098
| 66>   O                      3.335485             -1.459262            6.217298
| 67>   H                      3.961326             -1.631534            6.948087
| 68>   H                      1.859094             -2.983333            6.852082
| 69>   H                      1.470109             -2.070292            5.401378
| 70>   H                      2.752099             -3.228727            5.416353
| 71> *
| 72>
| 73>                          ****END OF INPUT****
 Total Charge           Charge          ....    0
 Multiplicity           Mult            ....    1
 Number of Electrons    NEL             ....   36
Dispersion correction           -0.001049054
FINAL SINGLE POINT ENERGY      -231.459822243252
Dispersion correction           -0.000246669
FINAL SINGLE POINT ENERGY      -115.732256852567

CARTESIAN COORDINATES (ANGSTROEM)
---------------------------------
  C      0.196325   -0.976893   10.050342
  O      1.433650   -0.253384    9.974844
  H      1.432420    0.446621   10.619602
  H     -0.611933   -0.325739   10.403889
  H     -0.103297   -1.288178    8.974143
  H      0.344229   -1.799503   10.711079
  C      2.296306   -2.463585    5.965098
  O      3.335485   -1.459262    6.217298
  H      3.961326   -1.631534    6.948087
  H      1.859094   -2.983333    6.852082
  H      1.470109   -2.070292    5.401378
  H      2.752099   -3.228727    5.416353

 Multiplicity           Mult            ....    1
 Number of Electrons    NEL             ....   18
 Basis Dimension        Dim             ....  172

ORBITAL ENERGIES
----------------

  NO   OCC          E(Eh)            E(eV)
   0   2.0000     -19.227157      -523.1975
   1   2.0000     -10.313862      -280.6545
   2   2.0000      -1.110719       -30.2242
   3   2.0000      -0.804421       -21.8894
   4   2.0000      -0.602432       -16.3930
   5   2.0000      -0.539778       -14.6881
   6   2.0000      -0.519846       -14.1457
   7   2.0000      -0.426276       -11.5996
   8   2.0000      -0.372130       -10.1262
   9   0.0000       0.083794         2.2801
  10   0.0000       0.117266         3.1910
  11   0.0000       0.141706         3.8560
  12   0.0000       0.172121         4.6836
  13   0.0000       0.189782         5.1642

MULLIKEN ATOMIC CHARGES
-----------------------
   0 C :   -0.000052
   1 O :   -0.000109
   2 H :   -0.000007
   3 H :    0.000007
   4 H :    0.000060
   5 H :   -0.000075
   6 C :   -0.158630
   7 O :   -0.510809
   8 H :    0.321008
   9 H :    0.102022
  10 H :    0.128128
  11 H :    0.118457
Sum of atomic charges:   -0.0000000

LOEWDIN ATOMIC CHARGES
----------------------
   0 C :   -0.000268
   1 O :   -0.000177
   2 H :   -0.000013
   3 H :   -0.000001
   4 H :   -0.000242
   5 H :   -0.000011
   6 C :   -0.340052
   7 O :   -0.127147
   8 H :    0.172959
   9 H :    0.101028
  10 H :    0.105594
  11 H :    0.088329

  Mayer bond orders larger than 0.1
B(  6-C ,  7-O ) :   0.9818 B(  6-C ,  9-H ) :   0.9712 B(  6-C , 10-H ) :   0.9709
B(  6-C , 11-H ) :   0.9824 B(  7-O ,  8-H ) :   0.8890

Dispersion correction           -0.000293663
FINAL SINGLE POINT ENERGY      -115.727266599651

DIPOLE MOMENT
-------------
                                X             Y             Z
Electronic contribution:      1.18165       1.34462       0.20428
Nuclear contribution   :     -1.23672      -1.92325       0.15020
                        -----------------------------------------
Total Dipole Moment    :     -0.05507      -0.57863       0.35448
                        -----------------------------------------
Magnitude (a.u.)       :      0.68081
Magnitude (Debye)      :      1.73047

Rotational constants in cm-1:     4.573308     0.769207     0.741968
Rotational constants in MHz : 137104.321487 23060.257929 22243.628070

                             ****ORCA TERMINATED NORMALLY****
TOTAL RUN TIME: 0 days 0 hours 0 minutes 55 seconds 439 msec
