                         Program Version 4.1.2  - RELEASE  -
|  1> #Run DFT-D3 single point of the dimer
|  2> ! wB97X-D3 def2-TZVP TIGHTSCF CHELPG PMODEL PAL8
|  3>
|  4> %base "14-124_DFT_AB"
|  5>
|  6> %scf
|  7> MaxIter 1000
|  8> end
|  9>
| 10> * xyz 0 1
| 11>   C                      -1.362543            6.784930             3.679058
| 12>   O                      -0.219741            7.521161             3.879493
| 13>   H                      0.185538             7.018371             4.576261
| 14>   H                      -1.285645            5.847294             3.067514
| 15>   H                      -1.664286            6.494515             4.688009
| 16>   H                      -2.131244            7.378088             3.241805
| 17>   C                      -1.521282            8.378259             0.163022
| 18>   O                      -2.421336            9.431542             0.150481
| 19>   H                      -1.883897            10.233263            0.253102
| 20>   H                      -1.853481            7.437224             -0.294332
| 21>   H                      -0.586889            8.693211             -0.294536
| 22>   H                      -1.280802            8.185077             1.218650
| 23> *
| 24>
| 25> #Run DFT-D3 single point of the molecule with dimer basis set
| 26> $new_job
| 27> %base "14-124_DFT_A"
| 28> ! wB97X-D3 def2-TZVP TIGHTSCF CHELPG PMODEL
| 29>
| 30> %scf
| 31> MaxIter 1000
| 32> end
| 33>
| 34> * xyz 0 1
| 35>   C                      -1.362543            6.784930             3.679058
| 36>   O                      -0.219741            7.521161             3.879493
| 37>   H                      0.185538             7.018371             4.576261
| 38>   H                      -1.285645            5.847294             3.067514
| 39>   H                      -1.664286            6.494515             4.688009
| 40>   H                      -2.131244            7.378088             3.241805
| 41>   C                    : -1.521282            8.378259             0.163022
| 42>   O                    : -2.421336            9.431542             0.150481
| 43>   H                    : -1.883897            10.233263            0.253102
| 44>   H                    : -1.853481            7.437224             -0.294332
| 45>   H                    : -0.586889            8.693211             -0.294536
| 46>   H                    : -1.280802            8.185077             1.218650
| 47> *
| 48>
| 49> #Run DFT-D3 single point of the particle with dimer basis set
| 50> $new_job
| 51> %base "14-124_DFT_B"
| 52> ! wB97X-D3 def2-TZVP TIGHTSCF CHELPG PMODEL
| 53>
| 54> %scf
| 55> MaxIter 1000
| 56> end
| 57>
| 58> * xyz 0 1
| 59>   C                    : -1.362543            6.784930             3.679058
| 60>   O                    : -0.219741            7.521161             3.879493
| 61>   H                    : 0.185538             7.018371             4.576261
| 62>   H                    : -1.285645            5.847294             3.067514
| 63>   H                    : -1.664286            6.494515             4.688009
| 64>   H                    : -2.131244            7.378088             3.241805
| 65>   C                      -1.521282            8.378259             0.163022
| 66>   O                      -2.421336            9.431542             0.150481
| 67>   H                      -1.883897            10.233263            0.253102
| 68>   H                      -1.853481            7.437224             -0.294332
| 69>   H                      -0.586889            8.693211             -0.294536
| 70>   H                      -1.280802            8.185077             1.218650
| 71> *
| 72>
| 73>                          ****END OF INPUT****
 Total Charge           Charge          ....    0
 Multiplicity           Mult            ....    1
 Number of Electrons    NEL             ....   36
Dispersion correction           -0.001488276
FINAL SINGLE POINT ENERGY      -231.462169592240
Dispersion correction           -0.000207670
FINAL SINGLE POINT ENERGY      -115.728840977207

CARTESIAN COORDINATES (ANGSTROEM)
---------------------------------
  C     -1.362543    6.784930    3.679058
  O     -0.219741    7.521161    3.879493
  H      0.185538    7.018371    4.576261
  H     -1.285645    5.847294    3.067514
  H     -1.664286    6.494515    4.688009
  H     -2.131244    7.378088    3.241805
  C     -1.521282    8.378259    0.163022
  O     -2.421336    9.431542    0.150481
  H     -1.883897   10.233263    0.253102
  H     -1.853481    7.437224   -0.294332
  H     -0.586889    8.693211   -0.294536
  H     -1.280802    8.185077    1.218650

 Multiplicity           Mult            ....    1
 Number of Electrons    NEL             ....   18
 Basis Dimension        Dim             ....  172

ORBITAL ENERGIES
----------------

  NO   OCC          E(Eh)            E(eV)
   0   2.0000     -19.229939      -523.2732
   1   2.0000     -10.310684      -280.5680
   2   2.0000      -1.145187       -31.1621
   3   2.0000      -0.790897       -21.5214
   4   2.0000      -0.615663       -16.7530
   5   2.0000      -0.543064       -14.7775
   6   2.0000      -0.535821       -14.5804
   7   2.0000      -0.433378       -11.7928
   8   2.0000      -0.367342        -9.9959
   9   0.0000       0.087900         2.3919
  10   0.0000       0.113665         3.0930
  11   0.0000       0.157643         4.2897
  12   0.0000       0.171467         4.6658
  13   0.0000       0.187702         5.1076

MULLIKEN ATOMIC CHARGES
-----------------------
   0 C :   -0.005901
   1 O :    0.000192
   2 H :   -0.000062
   3 H :   -0.000149
   4 H :    0.000303
   5 H :    0.006775
   6 C :   -0.164554
   7 O :   -0.465359
   8 H :    0.319622
   9 H :    0.115006
  10 H :    0.102663
  11 H :    0.091464
Sum of atomic charges:   -0.0000000

LOEWDIN ATOMIC CHARGES
----------------------
   0 C :   -0.010162
   1 O :   -0.001162
   2 H :   -0.000094
   3 H :   -0.000688
   4 H :   -0.000122
   5 H :   -0.003168
   6 C :   -0.405344
   7 O :   -0.062396
   8 H :    0.181405
   9 H :    0.107589
  10 H :    0.092748
  11 H :    0.101393

  Mayer bond orders larger than 0.1
B(  6-C ,  7-O ) :   0.9877 B(  6-C ,  9-H ) :   0.9661 B(  6-C , 10-H ) :   0.9900
B(  6-C , 11-H ) :   0.9827 B(  7-O ,  8-H ) :   0.8956

Dispersion correction           -0.000212485
FINAL SINGLE POINT ENERGY      -115.731991560912

DIPOLE MOMENT
-------------
                                X             Y             Z
Electronic contribution:     -1.38892       1.22899      -0.15659
Nuclear contribution   :      2.07332      -1.11687       0.21258
                        -----------------------------------------
Total Dipole Moment    :      0.68440       0.11213       0.05599
                        -----------------------------------------
Magnitude (a.u.)       :      0.69578
Magnitude (Debye)      :      1.76854

Rotational constants in cm-1:     4.276887     0.864315     0.827526
Rotational constants in MHz : 128217.843738 25911.507489 24808.615491

                             ****ORCA TERMINATED NORMALLY****
TOTAL RUN TIME: 0 days 0 hours 1 minutes 7 seconds 766 msec
