                         Program Version 4.1.2  - RELEASE  -
|  1> #Run DFT-D3 single point of the dimer
|  2> ! wB97X-D3 def2-TZVP TIGHTSCF CHELPG PMODEL PAL8
|  3>
|  4> %base "6-138_DFT_AB"
|  5>
|  6> %scf
|  7> MaxIter 1000
|  8> end
|  9>
| 10> * xyz 0 1
| 11>   C                      -4.761511            4.033597             0.644561
| 12>   O                      -5.840978            3.433233             0.049642
| 13>   H                      -5.492849            2.523633             0.104784
| 14>   H                      -3.783085            3.629081             0.423102
| 15>   H                      -4.640133            5.102742             0.387107
| 16>   H                      -4.887416            4.115966             1.738798
| 17>   C                      -2.257355            4.904226             3.123330
| 18>   O                      -2.741848            5.685477             2.049438
| 19>   H                      -2.437761            5.357605             1.206381
| 20>   H                      -2.704168            3.858075             3.112526
| 21>   H                      -1.204497            4.757217             3.086167
| 22>   H                      -2.488438            5.452510             4.061530
| 23> *
| 24>
| 25> #Run DFT-D3 single point of the molecule with dimer basis set
| 26> $new_job
| 27> %base "6-138_DFT_A"
| 28> ! wB97X-D3 def2-TZVP TIGHTSCF CHELPG PMODEL
| 29>
| 30> %scf
| 31> MaxIter 1000
| 32> end
| 33>
| 34> * xyz 0 1
| 35>   C                      -4.761511            4.033597             0.644561
| 36>   O                      -5.840978            3.433233             0.049642
| 37>   H                      -5.492849            2.523633             0.104784
| 38>   H                      -3.783085            3.629081             0.423102
| 39>   H                      -4.640133            5.102742             0.387107
| 40>   H                      -4.887416            4.115966             1.738798
| 41>   C                    : -2.257355            4.904226             3.123330
| 42>   O                    : -2.741848            5.685477             2.049438
| 43>   H                    : -2.437761            5.357605             1.206381
| 44>   H                    : -2.704168            3.858075             3.112526
| 45>   H                    : -1.204497            4.757217             3.086167
| 46>   H                    : -2.488438            5.452510             4.061530
| 47> *
| 48>
| 49> #Run DFT-D3 single point of the particle with dimer basis set
| 50> $new_job
| 51> %base "6-138_DFT_B"
| 52> ! wB97X-D3 def2-TZVP TIGHTSCF CHELPG PMODEL
| 53>
| 54> %scf
| 55> MaxIter 1000
| 56> end
| 57>
| 58> * xyz 0 1
| 59>   C                    : -4.761511            4.033597             0.644561
| 60>   O                    : -5.840978            3.433233             0.049642
| 61>   H                    : -5.492849            2.523633             0.104784
| 62>   H                    : -3.783085            3.629081             0.423102
| 63>   H                    : -4.640133            5.102742             0.387107
| 64>   H                    : -4.887416            4.115966             1.738798
| 65>   C                      -2.257355            4.904226             3.123330
| 66>   O                      -2.741848            5.685477             2.049438
| 67>   H                      -2.437761            5.357605             1.206381
| 68>   H                      -2.704168            3.858075             3.112526
| 69>   H                      -1.204497            4.757217             3.086167
| 70>   H                      -2.488438            5.452510             4.061530
| 71> *
| 72>
| 73>                          ****END OF INPUT****
 Total Charge           Charge          ....    0
 Multiplicity           Mult            ....    1
 Number of Electrons    NEL             ....   36
Dispersion correction           -0.002066524
FINAL SINGLE POINT ENERGY      -231.462053863594
Dispersion correction           -0.000218104
FINAL SINGLE POINT ENERGY      -115.726832428647

CARTESIAN COORDINATES (ANGSTROEM)
---------------------------------
  C     -4.761511    4.033597    0.644561
  O     -5.840978    3.433233    0.049642
  H     -5.492849    2.523633    0.104784
  H     -3.783085    3.629081    0.423102
  H     -4.640133    5.102742    0.387107
  H     -4.887416    4.115966    1.738798
  C     -2.257355    4.904226    3.123330
  O     -2.741848    5.685477    2.049438
  H     -2.437761    5.357605    1.206381
  H     -2.704168    3.858075    3.112526
  H     -1.204497    4.757217    3.086167
  H     -2.488438    5.452510    4.061530

 Multiplicity           Mult            ....    1
 Number of Electrons    NEL             ....   18
 Basis Dimension        Dim             ....  172

ORBITAL ENERGIES
----------------

  NO   OCC          E(Eh)            E(eV)
   0   2.0000     -19.230402      -523.2859
   1   2.0000     -10.316971      -280.7390
   2   2.0000      -1.136131       -30.9157
   3   2.0000      -0.796133       -21.6639
   4   2.0000      -0.616053       -16.7637
   5   2.0000      -0.537221       -14.6185
   6   2.0000      -0.525561       -14.3013
   7   2.0000      -0.433562       -11.7978
   8   2.0000      -0.373169       -10.1544
   9   0.0000       0.083635         2.2758
  10   0.0000       0.134981         3.6730
  11   0.0000       0.148552         4.0423
  12   0.0000       0.189570         5.1585
  13   0.0000       0.194105         5.2819

MULLIKEN ATOMIC CHARGES
-----------------------
   0 C :   -0.011765
   1 O :   -0.000529
   2 H :   -0.000093
   3 H :   -0.003587
   4 H :   -0.002913
   5 H :    0.001361
   6 C :   -0.163468
   7 O :   -0.467719
   8 H :    0.317038
   9 H :    0.095358
  10 H :    0.113363
  11 H :    0.122955
Sum of atomic charges:    0.0000000

LOEWDIN ATOMIC CHARGES
----------------------
   0 C :   -0.024483
   1 O :   -0.000078
   2 H :   -0.000056
   3 H :   -0.004230
   4 H :   -0.007624
   5 H :   -0.005357
   6 C :   -0.382350
   7 O :   -0.046717
   8 H :    0.166958
   9 H :    0.101859
  10 H :    0.087323
  11 H :    0.114754

  Mayer bond orders larger than 0.1
B(  6-C ,  7-O ) :   0.9968 B(  6-C ,  9-H ) :   0.9727 B(  6-C , 10-H ) :   0.9757
B(  6-C , 11-H ) :   0.9735 B(  7-O ,  8-H ) :   0.8954

Dispersion correction           -0.000250992
FINAL SINGLE POINT ENERGY      -115.735465405349

DIPOLE MOMENT
-------------
                                X             Y             Z
Electronic contribution:     -0.62987       1.11436      -1.26705
Nuclear contribution   :      1.06371      -1.61507       1.16273
                        -----------------------------------------
Total Dipole Moment    :      0.43384      -0.50071      -0.10432
                        -----------------------------------------
Magnitude (a.u.)       :      0.67068
Magnitude (Debye)      :      1.70472

Rotational constants in cm-1:     4.264567     0.828552     0.795826
Rotational constants in MHz : 127848.508476 24839.371588 23858.274819

                             ****ORCA TERMINATED NORMALLY****
TOTAL RUN TIME: 0 days 0 hours 1 minutes 5 seconds 527 msec
