                         Program Version 4.1.2  - RELEASE  -
|  1> #Run DFT-D3 single point of the dimer
|  2> ! wB97X-D3 def2-TZVP TIGHTSCF CHELPG PMODEL PAL8
|  3>
|  4> %base "1-37_DFT_AB"
|  5>
|  6> %scf
|  7> MaxIter 1000
|  8> end
|  9>
| 10> * xyz 0 1
| 11>   C                      -2.354992            4.220558             -11.114118
| 12>   O                      -3.266662            5.290288             -11.142796
| 13>   H                      -4.137291            4.981376             -11.457363
| 14>   H                      -1.583191            4.453698             -10.358504
| 15>   H                      -2.862234            3.277000             -10.825924
| 16>   H                      -1.849931            4.156217             -12.122973
| 17>   C                      -7.649662            3.831381             -11.862524
| 18>   O                      -6.808156            4.356718             -10.908898
| 19>   H                      -6.539380            3.713442             -10.256033
| 20>   H                      -8.543952            3.343475             -11.337118
| 21>   H                      -8.006381            4.584077             -12.619132
| 22>   H                      -7.217232            2.943753             -12.322363
| 23> *
| 24>
| 25> #Run DFT-D3 single point of the molecule with dimer basis set
| 26> $new_job
| 27> %base "1-37_DFT_A"
| 28> ! wB97X-D3 def2-TZVP TIGHTSCF CHELPG PMODEL
| 29>
| 30> %scf
| 31> MaxIter 1000
| 32> end
| 33>
| 34> * xyz 0 1
| 35>   C                      -2.354992            4.220558             -11.114118
| 36>   O                      -3.266662            5.290288             -11.142796
| 37>   H                      -4.137291            4.981376             -11.457363
| 38>   H                      -1.583191            4.453698             -10.358504
| 39>   H                      -2.862234            3.277000             -10.825924
| 40>   H                      -1.849931            4.156217             -12.122973
| 41>   C                    : -7.649662            3.831381             -11.862524
| 42>   O                    : -6.808156            4.356718             -10.908898
| 43>   H                    : -6.539380            3.713442             -10.256033
| 44>   H                    : -8.543952            3.343475             -11.337118
| 45>   H                    : -8.006381            4.584077             -12.619132
| 46>   H                    : -7.217232            2.943753             -12.322363
| 47> *
| 48>
| 49> #Run DFT-D3 single point of the particle with dimer basis set
| 50> $new_job
| 51> %base "1-37_DFT_B"
| 52> ! wB97X-D3 def2-TZVP TIGHTSCF CHELPG PMODEL
| 53>
| 54> %scf
| 55> MaxIter 1000
| 56> end
| 57>
| 58> * xyz 0 1
| 59>   C                    : -2.354992            4.220558             -11.114118
| 60>   O                    : -3.266662            5.290288             -11.142796
| 61>   H                    : -4.137291            4.981376             -11.457363
| 62>   H                    : -1.583191            4.453698             -10.358504
| 63>   H                    : -2.862234            3.277000             -10.825924
| 64>   H                    : -1.849931            4.156217             -12.122973
| 65>   C                      -7.649662            3.831381             -11.862524
| 66>   O                      -6.808156            4.356718             -10.908898
| 67>   H                      -6.539380            3.713442             -10.256033
| 68>   H                      -8.543952            3.343475             -11.337118
| 69>   H                      -8.006381            4.584077             -12.619132
| 70>   H                      -7.217232            2.943753             -12.322363
| 71> *
| 72>
| 73>                          ****END OF INPUT****
 Total Charge           Charge          ....    0
 Multiplicity           Mult            ....    1
 Number of Electrons    NEL             ....   36
Dispersion correction           -0.001231778
FINAL SINGLE POINT ENERGY      -231.468294826955
Dispersion correction           -0.000244943
FINAL SINGLE POINT ENERGY      -115.735004983219

CARTESIAN COORDINATES (ANGSTROEM)
---------------------------------
  C     -2.354992    4.220558  -11.114118
  O     -3.266662    5.290288  -11.142796
  H     -4.137291    4.981376  -11.457363
  H     -1.583191    4.453698  -10.358504
  H     -2.862234    3.277000  -10.825924
  H     -1.849931    4.156217  -12.122973
  C     -7.649662    3.831381  -11.862524
  O     -6.808156    4.356718  -10.908898
  H     -6.539380    3.713442  -10.256033
  H     -8.543952    3.343475  -11.337118
  H     -8.006381    4.584077  -12.619132
  H     -7.217232    2.943753  -12.322363

 Multiplicity           Mult            ....    1
 Number of Electrons    NEL             ....   18
 Basis Dimension        Dim             ....  172

ORBITAL ENERGIES
----------------

  NO   OCC          E(Eh)            E(eV)
   0   2.0000     -19.229152      -523.2518
   1   2.0000     -10.319649      -280.8119
   2   2.0000      -1.147718       -31.2310
   3   2.0000      -0.791791       -21.5457
   4   2.0000      -0.623328       -16.9616
   5   2.0000      -0.538541       -14.6544
   6   2.0000      -0.531697       -14.4682
   7   2.0000      -0.430197       -11.7063
   8   2.0000      -0.364124        -9.9083
   9   0.0000       0.088890         2.4188
  10   0.0000       0.119004         3.2383
  11   0.0000       0.152537         4.1508
  12   0.0000       0.183450         4.9919
  13   0.0000       0.193991         5.2788

MULLIKEN ATOMIC CHARGES
-----------------------
   0 C :    0.000905
   1 O :    0.000506
   2 H :   -0.007772
   3 H :   -0.000035
   4 H :   -0.000855
   5 H :   -0.000040
   6 C :   -0.154799
   7 O :   -0.468582
   8 H :    0.319747
   9 H :    0.085667
  10 H :    0.126933
  11 H :    0.098326
Sum of atomic charges:    0.0000000

LOEWDIN ATOMIC CHARGES
----------------------
   0 C :   -0.000295
   1 O :   -0.000567
   2 H :   -0.009529
   3 H :   -0.000003
   4 H :   -0.000217
   5 H :   -0.000001
   6 C :   -0.420710
   7 O :   -0.043202
   8 H :    0.169589
   9 H :    0.098553
  10 H :    0.116585
  11 H :    0.089797

  Mayer bond orders larger than 0.1
B(  6-C ,  7-O ) :   0.9911 B(  6-C ,  9-H ) :   0.9782 B(  6-C , 10-H ) :   0.9672
B(  6-C , 11-H ) :   0.9770 B(  7-O ,  8-H ) :   0.8913

Dispersion correction           -0.000232299
FINAL SINGLE POINT ENERGY      -115.730143578355

DIPOLE MOMENT
-------------
                                X             Y             Z
Electronic contribution:      1.18902       0.96234       1.09273
Nuclear contribution   :     -1.33147      -1.58766      -1.02947
                        -----------------------------------------
Total Dipole Moment    :     -0.14245      -0.62532       0.06326
                        -----------------------------------------
Magnitude (a.u.)       :      0.64445
Magnitude (Debye)      :      1.63806

Rotational constants in cm-1:     4.216544     0.864387     0.819001
Rotational constants in MHz : 126408.810889 25913.657060 24553.023335

                             ****ORCA TERMINATED NORMALLY****
TOTAL RUN TIME: 0 days 0 hours 6 minutes 18 seconds 557 msec
