                         Program Version 4.1.2  - RELEASE  -
|  1> #Run DFT-D3 single point of the dimer
|  2> ! wB97X-D3 def2-TZVP TIGHTSCF CHELPG PMODEL PAL8
|  3>
|  4> %base "14-69_DFT_AB"
|  5>
|  6> %scf
|  7> MaxIter 1000
|  8> end
|  9>
| 10> * xyz 0 1
| 11>   C                      -0.584460            9.833385             -7.370606
| 12>   O                      0.262817             9.973202             -6.259486
| 13>   H                      -0.083268            10.436978            -5.479950
| 14>   H                      -1.227082            10.668618            -7.422794
| 15>   H                      0.023229             9.743565             -8.282138
| 16>   H                      -1.232432            8.935795             -7.342917
| 17>   C                      2.863150             7.744078             -6.929804
| 18>   O                      2.217452             6.588471             -6.509607
| 19>   H                      1.930361             6.680088             -5.611710
| 20>   H                      3.641672             7.552157             -7.665934
| 21>   H                      2.103435             8.484738             -7.333405
| 22>   H                      3.349563             8.173691             -6.102497
| 23> *
| 24>
| 25> #Run DFT-D3 single point of the molecule with dimer basis set
| 26> $new_job
| 27> %base "14-69_DFT_A"
| 28> ! wB97X-D3 def2-TZVP TIGHTSCF CHELPG PMODEL
| 29>
| 30> %scf
| 31> MaxIter 1000
| 32> end
| 33>
| 34> * xyz 0 1
| 35>   C                      -0.584460            9.833385             -7.370606
| 36>   O                      0.262817             9.973202             -6.259486
| 37>   H                      -0.083268            10.436978            -5.479950
| 38>   H                      -1.227082            10.668618            -7.422794
| 39>   H                      0.023229             9.743565             -8.282138
| 40>   H                      -1.232432            8.935795             -7.342917
| 41>   C                    : 2.863150             7.744078             -6.929804
| 42>   O                    : 2.217452             6.588471             -6.509607
| 43>   H                    : 1.930361             6.680088             -5.611710
| 44>   H                    : 3.641672             7.552157             -7.665934
| 45>   H                    : 2.103435             8.484738             -7.333405
| 46>   H                    : 3.349563             8.173691             -6.102497
| 47> *
| 48>
| 49> #Run DFT-D3 single point of the particle with dimer basis set
| 50> $new_job
| 51> %base "14-69_DFT_B"
| 52> ! wB97X-D3 def2-TZVP TIGHTSCF CHELPG PMODEL
| 53>
| 54> %scf
| 55> MaxIter 1000
| 56> end
| 57>
| 58> * xyz 0 1
| 59>   C                    : -0.584460            9.833385             -7.370606
| 60>   O                    : 0.262817             9.973202             -6.259486
| 61>   H                    : -0.083268            10.436978            -5.479950
| 62>   H                    : -1.227082            10.668618            -7.422794
| 63>   H                    : 0.023229             9.743565             -8.282138
| 64>   H                    : -1.232432            8.935795             -7.342917
| 65>   C                      2.863150             7.744078             -6.929804
| 66>   O                      2.217452             6.588471             -6.509607
| 67>   H                      1.930361             6.680088             -5.611710
| 68>   H                      3.641672             7.552157             -7.665934
| 69>   H                      2.103435             8.484738             -7.333405
| 70>   H                      3.349563             8.173691             -6.102497
| 71> *
| 72>
| 73>                          ****END OF INPUT****
 Total Charge           Charge          ....    0
 Multiplicity           Mult            ....    1
 Number of Electrons    NEL             ....   36
Dispersion correction           -0.001695825
FINAL SINGLE POINT ENERGY      -231.467418457295
Dispersion correction           -0.000256089
FINAL SINGLE POINT ENERGY      -115.732767257255

CARTESIAN COORDINATES (ANGSTROEM)
---------------------------------
  C     -0.584460    9.833385   -7.370606
  O      0.262817    9.973202   -6.259486
  H     -0.083268   10.436978   -5.479950
  H     -1.227082   10.668618   -7.422794
  H      0.023229    9.743565   -8.282138
  H     -1.232432    8.935795   -7.342917
  C      2.863150    7.744078   -6.929804
  O      2.217452    6.588471   -6.509607
  H      1.930361    6.680088   -5.611710
  H      3.641672    7.552157   -7.665934
  H      2.103435    8.484738   -7.333405
  H      3.349563    8.173691   -6.102497

 Multiplicity           Mult            ....    1
 Number of Electrons    NEL             ....   18
 Basis Dimension        Dim             ....  172

ORBITAL ENERGIES
----------------

  NO   OCC          E(Eh)            E(eV)
   0   2.0000     -19.226135      -523.1697
   1   2.0000     -10.309857      -280.5455
   2   2.0000      -1.144805       -31.1517
   3   2.0000      -0.796743       -21.6805
   4   2.0000      -0.618893       -16.8409
   5   2.0000      -0.543642       -14.7933
   6   2.0000      -0.534296       -14.5389
   7   2.0000      -0.427961       -11.6454
   8   2.0000      -0.371110       -10.0984
   9   0.0000       0.082162         2.2357
  10   0.0000       0.122226         3.3259
  11   0.0000       0.156469         4.2577
  12   0.0000       0.159950         4.3525
  13   0.0000       0.192848         5.2477

MULLIKEN ATOMIC CHARGES
-----------------------
   0 C :    0.004953
   1 O :   -0.000798
   2 H :   -0.000099
   3 H :    0.000448
   4 H :   -0.001454
   5 H :   -0.000440
   6 C :   -0.156657
   7 O :   -0.474252
   8 H :    0.316368
   9 H :    0.120093
  10 H :    0.086020
  11 H :    0.105818
Sum of atomic charges:   -0.0000000

LOEWDIN ATOMIC CHARGES
----------------------
   0 C :   -0.004631
   1 O :   -0.003935
   2 H :   -0.000185
   3 H :   -0.000027
   4 H :   -0.002345
   5 H :   -0.000127
   6 C :   -0.396204
   7 O :   -0.054595
   8 H :    0.162613
   9 H :    0.105567
  10 H :    0.106256
  11 H :    0.087613

  Mayer bond orders larger than 0.1
B(  6-C ,  7-O ) :   1.0042 B(  6-C ,  9-H ) :   0.9730 B(  6-C , 10-H ) :   0.9732
B(  6-C , 11-H ) :   0.9907 B(  7-O ,  8-H ) :   0.8992

Dispersion correction           -0.000228216
FINAL SINGLE POINT ENERGY      -115.732745828093

DIPOLE MOMENT
-------------
                                X             Y             Z
Electronic contribution:     -0.75256      -1.58915       0.41627
Nuclear contribution   :      0.85465       2.08660       0.04006
                        -----------------------------------------
Total Dipole Moment    :      0.10209       0.49745       0.45633
                        -----------------------------------------
Magnitude (a.u.)       :      0.68272
Magnitude (Debye)      :      1.73534

Rotational constants in cm-1:     4.347937     0.851453     0.830442
Rotational constants in MHz : 130347.878909 25525.912113 24896.029498

                             ****ORCA TERMINATED NORMALLY****
TOTAL RUN TIME: 0 days 0 hours 0 minutes 57 seconds 329 msec
