                         Program Version 4.1.2  - RELEASE  -
|  1> #Run DFT-D3 single point of the dimer
|  2> ! wB97X-D3 def2-TZVP TIGHTSCF CHELPG PMODEL PAL8
|  3>
|  4> %base "15-146_DFT_AB"
|  5>
|  6> %scf
|  7> MaxIter 1000
|  8> end
|  9>
| 10> * xyz 0 1
| 11>   C                      7.303674             0.687426             6.517185
| 12>   O                      7.707774             1.463133             5.439199
| 13>   H                      7.376451             2.362845             5.531690
| 14>   H                      7.904835             -0.202361            6.651812
| 15>   H                      7.412063             1.245180             7.486515
| 16>   H                      6.233770             0.467527             6.340801
| 17>   C                      10.142335            1.302247             1.921414
| 18>   O                      9.078113             1.027545             1.000667
| 19>   H                      9.264941             1.643469             0.317087
| 20>   H                      10.236299            0.491485             2.608424
| 21>   H                      11.089045            1.398064             1.413199
| 22>   H                      9.884949             2.299644             2.479286
| 23> *
| 24>
| 25> #Run DFT-D3 single point of the molecule with dimer basis set
| 26> $new_job
| 27> %base "15-146_DFT_A"
| 28> ! wB97X-D3 def2-TZVP TIGHTSCF CHELPG PMODEL
| 29>
| 30> %scf
| 31> MaxIter 1000
| 32> end
| 33>
| 34> * xyz 0 1
| 35>   C                      7.303674             0.687426             6.517185
| 36>   O                      7.707774             1.463133             5.439199
| 37>   H                      7.376451             2.362845             5.531690
| 38>   H                      7.904835             -0.202361            6.651812
| 39>   H                      7.412063             1.245180             7.486515
| 40>   H                      6.233770             0.467527             6.340801
| 41>   C                    : 10.142335            1.302247             1.921414
| 42>   O                    : 9.078113             1.027545             1.000667
| 43>   H                    : 9.264941             1.643469             0.317087
| 44>   H                    : 10.236299            0.491485             2.608424
| 45>   H                    : 11.089045            1.398064             1.413199
| 46>   H                    : 9.884949             2.299644             2.479286
| 47> *
| 48>
| 49> #Run DFT-D3 single point of the particle with dimer basis set
| 50> $new_job
| 51> %base "15-146_DFT_B"
| 52> ! wB97X-D3 def2-TZVP TIGHTSCF CHELPG PMODEL
| 53>
| 54> %scf
| 55> MaxIter 1000
| 56> end
| 57>
| 58> * xyz 0 1
| 59>   C                    : 7.303674             0.687426             6.517185
| 60>   O                    : 7.707774             1.463133             5.439199
| 61>   H                    : 7.376451             2.362845             5.531690
| 62>   H                    : 7.904835             -0.202361            6.651812
| 63>   H                    : 7.412063             1.245180             7.486515
| 64>   H                    : 6.233770             0.467527             6.340801
| 65>   C                      10.142335            1.302247             1.921414
| 66>   O                      9.078113             1.027545             1.000667
| 67>   H                      9.264941             1.643469             0.317087
| 68>   H                      10.236299            0.491485             2.608424
| 69>   H                      11.089045            1.398064             1.413199
| 70>   H                      9.884949             2.299644             2.479286
| 71> *
| 72>
| 73>                          ****END OF INPUT****
 Total Charge           Charge          ....    0
 Multiplicity           Mult            ....    1
 Number of Electrons    NEL             ....   36
Dispersion correction           -0.000816267
FINAL SINGLE POINT ENERGY      -231.464631311175
Dispersion correction           -0.000226494
FINAL SINGLE POINT ENERGY      -115.733398018031

CARTESIAN COORDINATES (ANGSTROEM)
---------------------------------
  C      7.303674    0.687426    6.517185
  O      7.707774    1.463133    5.439199
  H      7.376451    2.362845    5.531690
  H      7.904835   -0.202361    6.651812
  H      7.412063    1.245180    7.486515
  H      6.233770    0.467527    6.340801
  C     10.142335    1.302247    1.921414
  O      9.078113    1.027545    1.000667
  H      9.264941    1.643469    0.317087
  H     10.236299    0.491485    2.608424
  H     11.089045    1.398064    1.413199
  H      9.884949    2.299644    2.479286

 Multiplicity           Mult            ....    1
 Number of Electrons    NEL             ....   18
 Basis Dimension        Dim             ....  172

ORBITAL ENERGIES
----------------

  NO   OCC          E(Eh)            E(eV)
   0   2.0000     -19.229101      -523.2504
   1   2.0000     -10.318733      -280.7870
   2   2.0000      -1.139188       -30.9989
   3   2.0000      -0.792965       -21.5777
   4   2.0000      -0.608078       -16.5466
   5   2.0000      -0.538695       -14.6586
   6   2.0000      -0.524668       -14.2769
   7   2.0000      -0.444844       -12.1048
   8   2.0000      -0.373331       -10.1589
   9   0.0000       0.087192         2.3726
  10   0.0000       0.115426         3.1409
  11   0.0000       0.150719         4.1013
  12   0.0000       0.167902         4.5688
  13   0.0000       0.190047         5.1714

MULLIKEN ATOMIC CHARGES
-----------------------
   0 C :    0.000037
   1 O :    0.000068
   2 H :   -0.000040
   3 H :   -0.000006
   4 H :   -0.000002
   5 H :   -0.000003
   6 C :   -0.182074
   7 O :   -0.460189
   8 H :    0.308238
   9 H :    0.124797
  10 H :    0.110257
  11 H :    0.098916
Sum of atomic charges:    0.0000000

LOEWDIN ATOMIC CHARGES
----------------------
   0 C :   -0.000019
   1 O :   -0.000097
   2 H :   -0.000056
   3 H :   -0.000004
   4 H :   -0.000000
   5 H :   -0.000001
   6 C :   -0.373973
   7 O :   -0.081721
   8 H :    0.155346
   9 H :    0.100267
  10 H :    0.091859
  11 H :    0.108398

  Mayer bond orders larger than 0.1
B(  6-C ,  7-O ) :   0.9974 B(  6-C ,  9-H ) :   0.9738 B(  6-C , 10-H ) :   0.9756
B(  6-C , 11-H ) :   0.9751 B(  7-O ,  8-H ) :   0.9102

Dispersion correction           -0.000228148
FINAL SINGLE POINT ENERGY      -115.731235851618

DIPOLE MOMENT
-------------
                                X             Y             Z
Electronic contribution:     -1.35377      -0.57004      -1.08894
Nuclear contribution   :      1.90910       1.02389       1.00727
                        -----------------------------------------
Total Dipole Moment    :      0.55533       0.45386      -0.08166
                        -----------------------------------------
Magnitude (a.u.)       :      0.72184
Magnitude (Debye)      :      1.83476

Rotational constants in cm-1:     4.131539     0.819473     0.797842
Rotational constants in MHz : 123860.421679 24567.192539 23918.700444

                             ****ORCA TERMINATED NORMALLY****
TOTAL RUN TIME: 0 days 0 hours 1 minutes 2 seconds 870 msec
