                         Program Version 4.1.2  - RELEASE  -
|  1> #Run DFT-D3 single point of the dimer
|  2> ! wB97X-D3 def2-TZVP TIGHTSCF CHELPG PMODEL PAL8
|  3>
|  4> %base "14-24_DFT_AB"
|  5>
|  6> %scf
|  7> MaxIter 1000
|  8> end
|  9>
| 10> * xyz 0 1
| 11>   C                      8.629797             8.547878             8.806274
| 12>   O                      8.727650             7.489372             9.777322
| 13>   H                      8.906374             7.894992             10.650402
| 14>   H                      9.165527             9.433401             9.047837
| 15>   H                      8.882979             8.196418             7.782462
| 16>   H                      7.598564             8.894795             8.815134
| 17>   C                      9.939674             4.439168             5.609119
| 18>   O                      10.886252            3.407679             5.467967
| 19>   H                      10.424961            2.573906             5.614202
| 20>   H                      9.629165             4.873717             4.667194
| 21>   H                      8.947370             4.094579             6.022876
| 22>   H                      10.314667            5.256920             6.200345
| 23> *
| 24>
| 25> #Run DFT-D3 single point of the molecule with dimer basis set
| 26> $new_job
| 27> %base "14-24_DFT_A"
| 28> ! wB97X-D3 def2-TZVP TIGHTSCF CHELPG PMODEL
| 29>
| 30> %scf
| 31> MaxIter 1000
| 32> end
| 33>
| 34> * xyz 0 1
| 35>   C                      8.629797             8.547878             8.806274
| 36>   O                      8.727650             7.489372             9.777322
| 37>   H                      8.906374             7.894992             10.650402
| 38>   H                      9.165527             9.433401             9.047837
| 39>   H                      8.882979             8.196418             7.782462
| 40>   H                      7.598564             8.894795             8.815134
| 41>   C                    : 9.939674             4.439168             5.609119
| 42>   O                    : 10.886252            3.407679             5.467967
| 43>   H                    : 10.424961            2.573906             5.614202
| 44>   H                    : 9.629165             4.873717             4.667194
| 45>   H                    : 8.947370             4.094579             6.022876
| 46>   H                    : 10.314667            5.256920             6.200345
| 47> *
| 48>
| 49> #Run DFT-D3 single point of the particle with dimer basis set
| 50> $new_job
| 51> %base "14-24_DFT_B"
| 52> ! wB97X-D3 def2-TZVP TIGHTSCF CHELPG PMODEL
| 53>
| 54> %scf
| 55> MaxIter 1000
| 56> end
| 57>
| 58> * xyz 0 1
| 59>   C                    : 8.629797             8.547878             8.806274
| 60>   O                    : 8.727650             7.489372             9.777322
| 61>   H                    : 8.906374             7.894992             10.650402
| 62>   H                    : 9.165527             9.433401             9.047837
| 63>   H                    : 8.882979             8.196418             7.782462
| 64>   H                    : 7.598564             8.894795             8.815134
| 65>   C                      9.939674             4.439168             5.609119
| 66>   O                      10.886252            3.407679             5.467967
| 67>   H                      10.424961            2.573906             5.614202
| 68>   H                      9.629165             4.873717             4.667194
| 69>   H                      8.947370             4.094579             6.022876
| 70>   H                      10.314667            5.256920             6.200345
| 71> *
| 72>
| 73>                          ****END OF INPUT****
 Total Charge           Charge          ....    0
 Multiplicity           Mult            ....    1
 Number of Electrons    NEL             ....   36
Dispersion correction           -0.000738319
FINAL SINGLE POINT ENERGY      -231.465945610148
Dispersion correction           -0.000250532
FINAL SINGLE POINT ENERGY      -115.732272545163

CARTESIAN COORDINATES (ANGSTROEM)
---------------------------------
  C      8.629797    8.547878    8.806274
  O      8.727650    7.489372    9.777322
  H      8.906374    7.894992   10.650402
  H      9.165527    9.433401    9.047837
  H      8.882979    8.196418    7.782462
  H      7.598564    8.894795    8.815134
  C      9.939674    4.439168    5.609119
  O     10.886252    3.407679    5.467967
  H     10.424961    2.573906    5.614202
  H      9.629165    4.873717    4.667194
  H      8.947370    4.094579    6.022876
  H     10.314667    5.256920    6.200345

 Multiplicity           Mult            ....    1
 Number of Electrons    NEL             ....   18
 Basis Dimension        Dim             ....  172

ORBITAL ENERGIES
----------------

  NO   OCC          E(Eh)            E(eV)
   0   2.0000     -19.233046      -523.3578
   1   2.0000     -10.313114      -280.6341
   2   2.0000      -1.138956       -30.9926
   3   2.0000      -0.796108       -21.6632
   4   2.0000      -0.614483       -16.7209
   5   2.0000      -0.538254       -14.6466
   6   2.0000      -0.529379       -14.4051
   7   2.0000      -0.434486       -11.8230
   8   2.0000      -0.373221       -10.1559
   9   0.0000       0.084189         2.2909
  10   0.0000       0.112150         3.0518
  11   0.0000       0.141579         3.8526
  12   0.0000       0.167308         4.5527
  13   0.0000       0.189321         5.1517

MULLIKEN ATOMIC CHARGES
-----------------------
   0 C :   -0.000031
   1 O :    0.000005
   2 H :    0.000001
   3 H :    0.000000
   4 H :   -0.000090
   5 H :   -0.000001
   6 C :   -0.166277
   7 O :   -0.465996
   8 H :    0.320302
   9 H :    0.098949
  10 H :    0.095476
  11 H :    0.117663
Sum of atomic charges:   -0.0000000

LOEWDIN ATOMIC CHARGES
----------------------
   0 C :   -0.000088
   1 O :   -0.000006
   2 H :   -0.000000
   3 H :   -0.000000
   4 H :   -0.000182
   5 H :   -0.000001
   6 C :   -0.395721
   7 O :   -0.072135
   8 H :    0.174873
   9 H :    0.092623
  10 H :    0.101660
  11 H :    0.098980

  Mayer bond orders larger than 0.1
B(  6-C ,  7-O ) :   1.0160 B(  6-C ,  9-H ) :   0.9730 B(  6-C , 10-H ) :   0.9851
B(  6-C , 11-H ) :   0.9770 B(  7-O ,  8-H ) :   0.8976

Dispersion correction           -0.000255082
FINAL SINGLE POINT ENERGY      -115.733299460061

DIPOLE MOMENT
-------------
                                X             Y             Z
Electronic contribution:      1.45992      -1.27889      -0.17437
Nuclear contribution   :     -2.12939       1.14028       0.31929
                        -----------------------------------------
Total Dipole Moment    :     -0.66947      -0.13861       0.14492
                        -----------------------------------------
Magnitude (a.u.)       :      0.69886
Magnitude (Debye)      :      1.77637

Rotational constants in cm-1:     4.374869     0.832994     0.795505
Rotational constants in MHz : 131155.259610 24972.527043 23848.632498

                             ****ORCA TERMINATED NORMALLY****
TOTAL RUN TIME: 0 days 0 hours 1 minutes 1 seconds 384 msec
