                         Program Version 4.1.2  - RELEASE  -
|  1> #Run DFT-D3 single point of the dimer
|  2> ! wB97X-D3 def2-TZVP TIGHTSCF CHELPG PMODEL PAL8
|  3>
|  4> %base "11-128_DFT_AB"
|  5>
|  6> %scf
|  7> MaxIter 1000
|  8> end
|  9>
| 10> * xyz 0 1
| 11>   C                      0.044626             7.336796             -2.000568
| 12>   O                      0.666804             8.379387             -2.767885
| 13>   H                      1.634866             8.354970             -2.635268
| 14>   H                      0.688306             6.433786             -1.904531
| 15>   H                      -0.210121            7.772745             -1.070785
| 16>   H                      -0.934877            7.018362             -2.489453
| 17>   C                      4.705725             8.901838             -1.620653
| 18>   O                      3.504029             8.280824             -2.084138
| 19>   H                      3.786292             7.682769             -2.794021
| 20>   H                      5.179210             9.653084             -2.296664
| 21>   H                      4.572387             9.390912             -0.647101
| 22>   H                      5.505550             8.207702             -1.522932
| 23> *
| 24>
| 25> #Run DFT-D3 single point of the molecule with dimer basis set
| 26> $new_job
| 27> %base "11-128_DFT_A"
| 28> ! wB97X-D3 def2-TZVP TIGHTSCF CHELPG PMODEL
| 29>
| 30> %scf
| 31> MaxIter 1000
| 32> end
| 33>
| 34> * xyz 0 1
| 35>   C                      0.044626             7.336796             -2.000568
| 36>   O                      0.666804             8.379387             -2.767885
| 37>   H                      1.634866             8.354970             -2.635268
| 38>   H                      0.688306             6.433786             -1.904531
| 39>   H                      -0.210121            7.772745             -1.070785
| 40>   H                      -0.934877            7.018362             -2.489453
| 41>   C                    : 4.705725             8.901838             -1.620653
| 42>   O                    : 3.504029             8.280824             -2.084138
| 43>   H                    : 3.786292             7.682769             -2.794021
| 44>   H                    : 5.179210             9.653084             -2.296664
| 45>   H                    : 4.572387             9.390912             -0.647101
| 46>   H                    : 5.505550             8.207702             -1.522932
| 47> *
| 48>
| 49> #Run DFT-D3 single point of the particle with dimer basis set
| 50> $new_job
| 51> %base "11-128_DFT_B"
| 52> ! wB97X-D3 def2-TZVP TIGHTSCF CHELPG PMODEL
| 53>
| 54> %scf
| 55> MaxIter 1000
| 56> end
| 57>
| 58> * xyz 0 1
| 59>   C                    : 0.044626             7.336796             -2.000568
| 60>   O                    : 0.666804             8.379387             -2.767885
| 61>   H                    : 1.634866             8.354970             -2.635268
| 62>   H                    : 0.688306             6.433786             -1.904531
| 63>   H                    : -0.210121            7.772745             -1.070785
| 64>   H                    : -0.934877            7.018362             -2.489453
| 65>   C                      4.705725             8.901838             -1.620653
| 66>   O                      3.504029             8.280824             -2.084138
| 67>   H                      3.786292             7.682769             -2.794021
| 68>   H                      5.179210             9.653084             -2.296664
| 69>   H                      4.572387             9.390912             -0.647101
| 70>   H                      5.505550             8.207702             -1.522932
| 71> *
| 72>
| 73>                          ****END OF INPUT****
 Total Charge           Charge          ....    0
 Multiplicity           Mult            ....    1
 Number of Electrons    NEL             ....   36
Dispersion correction           -0.001513125
FINAL SINGLE POINT ENERGY      -231.472116659284
Dispersion correction           -0.000254087
FINAL SINGLE POINT ENERGY      -115.732467363894

CARTESIAN COORDINATES (ANGSTROEM)
---------------------------------
  C      0.044626    7.336796   -2.000568
  O      0.666804    8.379387   -2.767885
  H      1.634866    8.354970   -2.635268
  H      0.688306    6.433786   -1.904531
  H     -0.210121    7.772745   -1.070785
  H     -0.934877    7.018362   -2.489453
  C      4.705725    8.901838   -1.620653
  O      3.504029    8.280824   -2.084138
  H      3.786292    7.682769   -2.794021
  H      5.179210    9.653084   -2.296664
  H      4.572387    9.390912   -0.647101
  H      5.505550    8.207702   -1.522932

 Multiplicity           Mult            ....    1
 Number of Electrons    NEL             ....   18
 Basis Dimension        Dim             ....  172

ORBITAL ENERGIES
----------------

  NO   OCC          E(Eh)            E(eV)
   0   2.0000     -19.237459      -523.4779
   1   2.0000     -10.314547      -280.6731
   2   2.0000      -1.133942       -30.8561
   3   2.0000      -0.797799       -21.7092
   4   2.0000      -0.614185       -16.7128
   5   2.0000      -0.530221       -14.4280
   6   2.0000      -0.527264       -14.3476
   7   2.0000      -0.444137       -12.0856
   8   2.0000      -0.374817       -10.1993
   9   0.0000       0.098118         2.6699
  10   0.0000       0.122125         3.3232
  11   0.0000       0.150211         4.0874
  12   0.0000       0.193084         5.2541
  13   0.0000       0.202210         5.5024

MULLIKEN ATOMIC CHARGES
-----------------------
   0 C :    0.002428
   1 O :    0.002193
   2 H :   -0.016766
   3 H :   -0.002062
   4 H :   -0.000461
   5 H :   -0.000153
   6 C :   -0.179261
   7 O :   -0.453849
   8 H :    0.317459
   9 H :    0.098471
  10 H :    0.124473
  11 H :    0.107527
Sum of atomic charges:    0.0000000

LOEWDIN ATOMIC CHARGES
----------------------
   0 C :   -0.003089
   1 O :   -0.004202
   2 H :   -0.040422
   3 H :   -0.000932
   4 H :   -0.000108
   5 H :   -0.000040
   6 C :   -0.380734
   7 O :   -0.047780
   8 H :    0.179853
   9 H :    0.097874
  10 H :    0.110183
  11 H :    0.089398

  Mayer bond orders larger than 0.1
B(  6-C ,  7-O ) :   1.0019 B(  6-C ,  9-H ) :   0.9678 B(  6-C , 10-H ) :   0.9774
B(  6-C , 11-H ) :   0.9757 B(  7-O ,  8-H ) :   0.8953

Dispersion correction           -0.000255762
FINAL SINGLE POINT ENERGY      -115.733153231658

DIPOLE MOMENT
-------------
                                X             Y             Z
Electronic contribution:     -1.74023      -0.75905      -0.47005
Nuclear contribution   :      2.42358       0.60751       0.22726
                        -----------------------------------------
Total Dipole Moment    :      0.68335      -0.15154      -0.24280
                        -----------------------------------------
Magnitude (a.u.)       :      0.74086
Magnitude (Debye)      :      1.88313

Rotational constants in cm-1:     4.403709     0.811605     0.775102
Rotational constants in MHz : 132019.860689 24331.318198 23236.974955

                             ****ORCA TERMINATED NORMALLY****
TOTAL RUN TIME: 0 days 0 hours 1 minutes 15 seconds 738 msec
