                         Program Version 4.1.2  - RELEASE  -
|  1> #Run DFT-D3 single point of the dimer
|  2> ! wB97X-D3 def2-TZVP TIGHTSCF CHELPG PMODEL PAL8
|  3>
|  4> %base "14-12_DFT_AB"
|  5>
|  6> %scf
|  7> MaxIter 1000
|  8> end
|  9>
| 10> * xyz 0 1
| 11>   C                      -9.672709            4.006744             2.552932
| 12>   O                      -10.300829           4.988320             3.368327
| 13>   H                      -10.582800           4.429678             4.110281
| 14>   H                      -10.532027           3.583830             1.937451
| 15>   H                      -9.091793            4.425824             1.762786
| 16>   H                      -9.184682            3.240365             3.147805
| 17>   C                      -6.355175            4.803348             -0.633554
| 18>   O                      -6.165207            4.170899             0.606047
| 19>   H                      -6.825564            3.483296             0.638373
| 20>   H                      -7.380405            5.187809             -0.791474
| 21>   H                      -5.628031            5.602576             -0.976239
| 22>   H                      -6.191720            4.108695             -1.435763
| 23> *
| 24>
| 25> #Run DFT-D3 single point of the molecule with dimer basis set
| 26> $new_job
| 27> %base "14-12_DFT_A"
| 28> ! wB97X-D3 def2-TZVP TIGHTSCF CHELPG PMODEL
| 29>
| 30> %scf
| 31> MaxIter 1000
| 32> end
| 33>
| 34> * xyz 0 1
| 35>   C                      -9.672709            4.006744             2.552932
| 36>   O                      -10.300829           4.988320             3.368327
| 37>   H                      -10.582800           4.429678             4.110281
| 38>   H                      -10.532027           3.583830             1.937451
| 39>   H                      -9.091793            4.425824             1.762786
| 40>   H                      -9.184682            3.240365             3.147805
| 41>   C                    : -6.355175            4.803348             -0.633554
| 42>   O                    : -6.165207            4.170899             0.606047
| 43>   H                    : -6.825564            3.483296             0.638373
| 44>   H                    : -7.380405            5.187809             -0.791474
| 45>   H                    : -5.628031            5.602576             -0.976239
| 46>   H                    : -6.191720            4.108695             -1.435763
| 47> *
| 48>
| 49> #Run DFT-D3 single point of the particle with dimer basis set
| 50> $new_job
| 51> %base "14-12_DFT_B"
| 52> ! wB97X-D3 def2-TZVP TIGHTSCF CHELPG PMODEL
| 53>
| 54> %scf
| 55> MaxIter 1000
| 56> end
| 57>
| 58> * xyz 0 1
| 59>   C                    : -9.672709            4.006744             2.552932
| 60>   O                    : -10.300829           4.988320             3.368327
| 61>   H                    : -10.582800           4.429678             4.110281
| 62>   H                    : -10.532027           3.583830             1.937451
| 63>   H                    : -9.091793            4.425824             1.762786
| 64>   H                    : -9.184682            3.240365             3.147805
| 65>   C                      -6.355175            4.803348             -0.633554
| 66>   O                      -6.165207            4.170899             0.606047
| 67>   H                      -6.825564            3.483296             0.638373
| 68>   H                      -7.380405            5.187809             -0.791474
| 69>   H                      -5.628031            5.602576             -0.976239
| 70>   H                      -6.191720            4.108695             -1.435763
| 71> *
| 72>
| 73>                          ****END OF INPUT****
 Total Charge           Charge          ....    0
 Multiplicity           Mult            ....    1
 Number of Electrons    NEL             ....   36
Dispersion correction           -0.001249782
FINAL SINGLE POINT ENERGY      -231.456492346830
Dispersion correction           -0.000215645
FINAL SINGLE POINT ENERGY      -115.727291447956

CARTESIAN COORDINATES (ANGSTROEM)
---------------------------------
  C     -9.672709    4.006744    2.552932
  O    -10.300829    4.988320    3.368327
  H    -10.582800    4.429678    4.110281
  H    -10.532027    3.583830    1.937451
  H     -9.091793    4.425824    1.762786
  H     -9.184682    3.240365    3.147805
  C     -6.355175    4.803348   -0.633554
  O     -6.165207    4.170899    0.606047
  H     -6.825564    3.483296    0.638373
  H     -7.380405    5.187809   -0.791474
  H     -5.628031    5.602576   -0.976239
  H     -6.191720    4.108695   -1.435763

 Multiplicity           Mult            ....    1
 Number of Electrons    NEL             ....   18
 Basis Dimension        Dim             ....  172

ORBITAL ENERGIES
----------------

  NO   OCC          E(Eh)            E(eV)
   0   2.0000     -19.235661      -523.4290
   1   2.0000     -10.316380      -280.7230
   2   2.0000      -1.145180       -31.1619
   3   2.0000      -0.795472       -21.6459
   4   2.0000      -0.616430       -16.7739
   5   2.0000      -0.543802       -14.7976
   6   2.0000      -0.528249       -14.3744
   7   2.0000      -0.431581       -11.7439
   8   2.0000      -0.374828       -10.1996
   9   0.0000       0.080664         2.1950
  10   0.0000       0.122816         3.3420
  11   0.0000       0.145448         3.9578
  12   0.0000       0.176763         4.8100
  13   0.0000       0.187077         5.0906

MULLIKEN ATOMIC CHARGES
-----------------------
   0 C :    0.002577
   1 O :   -0.000090
   2 H :   -0.000006
   3 H :   -0.000206
   4 H :   -0.008089
   5 H :    0.000297
   6 C :   -0.186246
   7 O :   -0.459791
   8 H :    0.320376
   9 H :    0.102889
  10 H :    0.121127
  11 H :    0.107163
Sum of atomic charges:    0.0000000

LOEWDIN ATOMIC CHARGES
----------------------
   0 C :   -0.002125
   1 O :   -0.000017
   2 H :   -0.000005
   3 H :   -0.000020
   4 H :   -0.002888
   5 H :   -0.000098
   6 C :   -0.408497
   7 O :   -0.060175
   8 H :    0.170789
   9 H :    0.095450
  10 H :    0.117878
  11 H :    0.089706

  Mayer bond orders larger than 0.1
B(  6-C ,  7-O ) :   1.0028 B(  6-C ,  9-H ) :   0.9728 B(  6-C , 10-H ) :   0.9697
B(  6-C , 11-H ) :   0.9846 B(  7-O ,  8-H ) :   0.8958

Dispersion correction           -0.000243351
FINAL SINGLE POINT ENERGY      -115.729031712938

DIPOLE MOMENT
-------------
                                X             Y             Z
Electronic contribution:      0.38484      -0.70941       1.85017
Nuclear contribution   :     -0.85046       0.49924      -2.33887
                        -----------------------------------------
Total Dipole Moment    :     -0.46562      -0.21017      -0.48870
                        -----------------------------------------
Magnitude (a.u.)       :      0.70697
Magnitude (Debye)      :      1.79696

Rotational constants in cm-1:     4.445145     0.826954     0.794709
Rotational constants in MHz : 133262.099640 24791.454814 23824.763936

                             ****ORCA TERMINATED NORMALLY****
TOTAL RUN TIME: 0 days 0 hours 1 minutes 6 seconds 152 msec
