                         Program Version 4.1.2  - RELEASE  -
|  1> #Run DFT-D3 single point of the dimer
|  2> ! wB97X-D3 def2-TZVP TIGHTSCF CHELPG PMODEL PAL8
|  3>
|  4> %base "6-109_DFT_AB"
|  5>
|  6> %scf
|  7> MaxIter 1000
|  8> end
|  9>
| 10> * xyz 0 1
| 11>   C                      3.504074             3.083173             -2.831861
| 12>   O                      3.784711             1.868062             -3.447040
| 13>   H                      3.080860             1.253483             -3.553574
| 14>   H                      3.183347             3.778387             -3.555988
| 15>   H                      2.754322             2.961550             -2.060546
| 16>   H                      4.439116             3.440261             -2.383345
| 17>   C                      0.532275             0.269988             -3.795589
| 18>   O                      1.262319             0.430472             -2.605492
| 19>   H                      0.741062             0.861903             -1.988043
| 20>   H                      0.185599             1.238114             -4.264156
| 21>   H                      1.060548             -0.294649            -4.632051
| 22>   H                      -0.314583            -0.363688            -3.704757
| 23> *
| 24>
| 25> #Run DFT-D3 single point of the molecule with dimer basis set
| 26> $new_job
| 27> %base "6-109_DFT_A"
| 28> ! wB97X-D3 def2-TZVP TIGHTSCF CHELPG PMODEL
| 29>
| 30> %scf
| 31> MaxIter 1000
| 32> end
| 33>
| 34> * xyz 0 1
| 35>   C                      3.504074             3.083173             -2.831861
| 36>   O                      3.784711             1.868062             -3.447040
| 37>   H                      3.080860             1.253483             -3.553574
| 38>   H                      3.183347             3.778387             -3.555988
| 39>   H                      2.754322             2.961550             -2.060546
| 40>   H                      4.439116             3.440261             -2.383345
| 41>   C                    : 0.532275             0.269988             -3.795589
| 42>   O                    : 1.262319             0.430472             -2.605492
| 43>   H                    : 0.741062             0.861903             -1.988043
| 44>   H                    : 0.185599             1.238114             -4.264156
| 45>   H                    : 1.060548             -0.294649            -4.632051
| 46>   H                    : -0.314583            -0.363688            -3.704757
| 47> *
| 48>
| 49> #Run DFT-D3 single point of the particle with dimer basis set
| 50> $new_job
| 51> %base "6-109_DFT_B"
| 52> ! wB97X-D3 def2-TZVP TIGHTSCF CHELPG PMODEL
| 53>
| 54> %scf
| 55> MaxIter 1000
| 56> end
| 57>
| 58> * xyz 0 1
| 59>   C                    : 3.504074             3.083173             -2.831861
| 60>   O                    : 3.784711             1.868062             -3.447040
| 61>   H                    : 3.080860             1.253483             -3.553574
| 62>   H                    : 3.183347             3.778387             -3.555988
| 63>   H                    : 2.754322             2.961550             -2.060546
| 64>   H                    : 4.439116             3.440261             -2.383345
| 65>   C                      0.532275             0.269988             -3.795589
| 66>   O                      1.262319             0.430472             -2.605492
| 67>   H                      0.741062             0.861903             -1.988043
| 68>   H                      0.185599             1.238114             -4.264156
| 69>   H                      1.060548             -0.294649            -4.632051
| 70>   H                      -0.314583            -0.363688            -3.704757
| 71> *
| 72>
| 73>                          ****END OF INPUT****
 Total Charge           Charge          ....    0
 Multiplicity           Mult            ....    1
 Number of Electrons    NEL             ....   36
Dispersion correction           -0.002009870
FINAL SINGLE POINT ENERGY      -231.467400676606
Dispersion correction           -0.000235868
FINAL SINGLE POINT ENERGY      -115.733443874117

CARTESIAN COORDINATES (ANGSTROEM)
---------------------------------
  C      3.504074    3.083173   -2.831861
  O      3.784711    1.868062   -3.447040
  H      3.080860    1.253483   -3.553574
  H      3.183347    3.778387   -3.555988
  H      2.754322    2.961550   -2.060546
  H      4.439116    3.440261   -2.383345
  C      0.532275    0.269988   -3.795589
  O      1.262319    0.430472   -2.605492
  H      0.741062    0.861903   -1.988043
  H      0.185599    1.238114   -4.264156
  H      1.060548   -0.294649   -4.632051
  H     -0.314583   -0.363688   -3.704757

 Multiplicity           Mult            ....    1
 Number of Electrons    NEL             ....   18
 Basis Dimension        Dim             ....  172

ORBITAL ENERGIES
----------------

  NO   OCC          E(Eh)            E(eV)
   0   2.0000     -19.232099      -523.3320
   1   2.0000     -10.318803      -280.7889
   2   2.0000      -1.150270       -31.3004
   3   2.0000      -0.800417       -21.7804
   4   2.0000      -0.622194       -16.9308
   5   2.0000      -0.543308       -14.7842
   6   2.0000      -0.526571       -14.3287
   7   2.0000      -0.427715       -11.6387
   8   2.0000      -0.378907       -10.3106
   9   0.0000       0.095319         2.5938
  10   0.0000       0.133065         3.6209
  11   0.0000       0.146145         3.9768
  12   0.0000       0.182812         4.9746
  13   0.0000       0.195991         5.3332

MULLIKEN ATOMIC CHARGES
-----------------------
   0 C :    0.001860
   1 O :   -0.000853
   2 H :    0.002396
   3 H :   -0.000226
   4 H :   -0.008029
   5 H :   -0.000496
   6 C :   -0.177151
   7 O :   -0.457583
   8 H :    0.309196
   9 H :    0.098442
  10 H :    0.120112
  11 H :    0.112333
Sum of atomic charges:    0.0000000

LOEWDIN ATOMIC CHARGES
----------------------
   0 C :   -0.005893
   1 O :   -0.003804
   2 H :   -0.018980
   3 H :   -0.000089
   4 H :   -0.003866
   5 H :   -0.000093
   6 C :   -0.399191
   7 O :   -0.018980
   8 H :    0.142568
   9 H :    0.100391
  10 H :    0.119747
  11 H :    0.088191

  Mayer bond orders larger than 0.1
B(  6-C ,  7-O ) :   0.9962 B(  6-C ,  9-H ) :   0.9749 B(  6-C , 10-H ) :   0.9743
B(  6-C , 11-H ) :   0.9714 B(  7-O ,  8-H ) :   0.9051

Dispersion correction           -0.000262073
FINAL SINGLE POINT ENERGY      -115.729025888190

DIPOLE MOMENT
-------------
                                X             Y             Z
Electronic contribution:      1.08838       0.17757       1.67243
Nuclear contribution   :     -1.73668      -0.00303      -1.73482
                        -----------------------------------------
Total Dipole Moment    :     -0.64831       0.17454      -0.06239
                        -----------------------------------------
Magnitude (a.u.)       :      0.67428
Magnitude (Debye)      :      1.71390

Rotational constants in cm-1:     4.503283     0.819052     0.793350
Rotational constants in MHz : 135005.031805 24554.552709 23784.045382

                             ****ORCA TERMINATED NORMALLY****
TOTAL RUN TIME: 0 days 0 hours 1 minutes 6 seconds 34 msec
