                         Program Version 4.1.2  - RELEASE  -
|  1> #Run DFT-D3 single point of the dimer
|  2> ! wB97X-D3 def2-TZVP TIGHTSCF CHELPG PMODEL PAL8
|  3>
|  4> %base "13-152_DFT_AB"
|  5>
|  6> %scf
|  7> MaxIter 1000
|  8> end
|  9>
| 10> * xyz 0 1
| 11>   C                      -7.220096            6.994983             -1.251529
| 12>   O                      -5.864312            6.616557             -1.059694
| 13>   H                      -5.438133            6.373003             -1.911575
| 14>   H                      -7.354863            8.098564             -1.220289
| 15>   H                      -7.641321            6.615073             -2.156346
| 16>   H                      -7.859570            6.551375             -0.455189
| 17>   C                      -2.594879            8.199299             0.433839
| 18>   O                      -2.875502            6.827219             0.129060
| 19>   H                      -3.783125            6.745427             -0.117083
| 20>   H                      -1.540234            8.249601             0.733262
| 21>   H                      -2.685778            8.822723             -0.489684
| 22>   H                      -3.280828            8.560480             1.135978
| 23> *
| 24>
| 25> #Run DFT-D3 single point of the molecule with dimer basis set
| 26> $new_job
| 27> %base "13-152_DFT_A"
| 28> ! wB97X-D3 def2-TZVP TIGHTSCF CHELPG PMODEL
| 29>
| 30> %scf
| 31> MaxIter 1000
| 32> end
| 33>
| 34> * xyz 0 1
| 35>   C                      -7.220096            6.994983             -1.251529
| 36>   O                      -5.864312            6.616557             -1.059694
| 37>   H                      -5.438133            6.373003             -1.911575
| 38>   H                      -7.354863            8.098564             -1.220289
| 39>   H                      -7.641321            6.615073             -2.156346
| 40>   H                      -7.859570            6.551375             -0.455189
| 41>   C                    : -2.594879            8.199299             0.433839
| 42>   O                    : -2.875502            6.827219             0.129060
| 43>   H                    : -3.783125            6.745427             -0.117083
| 44>   H                    : -1.540234            8.249601             0.733262
| 45>   H                    : -2.685778            8.822723             -0.489684
| 46>   H                    : -3.280828            8.560480             1.135978
| 47> *
| 48>
| 49> #Run DFT-D3 single point of the particle with dimer basis set
| 50> $new_job
| 51> %base "13-152_DFT_B"
| 52> ! wB97X-D3 def2-TZVP TIGHTSCF CHELPG PMODEL
| 53>
| 54> %scf
| 55> MaxIter 1000
| 56> end
| 57>
| 58> * xyz 0 1
| 59>   C                    : -7.220096            6.994983             -1.251529
| 60>   O                    : -5.864312            6.616557             -1.059694
| 61>   H                    : -5.438133            6.373003             -1.911575
| 62>   H                    : -7.354863            8.098564             -1.220289
| 63>   H                    : -7.641321            6.615073             -2.156346
| 64>   H                    : -7.859570            6.551375             -0.455189
| 65>   C                      -2.594879            8.199299             0.433839
| 66>   O                      -2.875502            6.827219             0.129060
| 67>   H                      -3.783125            6.745427             -0.117083
| 68>   H                      -1.540234            8.249601             0.733262
| 69>   H                      -2.685778            8.822723             -0.489684
| 70>   H                      -3.280828            8.560480             1.135978
| 71> *
| 72>
| 73>                          ****END OF INPUT****
 Total Charge           Charge          ....    0
 Multiplicity           Mult            ....    1
 Number of Electrons    NEL             ....   36
Dispersion correction           -0.001369616
FINAL SINGLE POINT ENERGY      -231.474860934888
Dispersion correction           -0.000264566
FINAL SINGLE POINT ENERGY      -115.734365430927

CARTESIAN COORDINATES (ANGSTROEM)
---------------------------------
  C     -7.220096    6.994983   -1.251529
  O     -5.864312    6.616557   -1.059694
  H     -5.438133    6.373003   -1.911575
  H     -7.354863    8.098564   -1.220289
  H     -7.641321    6.615073   -2.156346
  H     -7.859570    6.551375   -0.455189
  C     -2.594879    8.199299    0.433839
  O     -2.875502    6.827219    0.129060
  H     -3.783125    6.745427   -0.117083
  H     -1.540234    8.249601    0.733262
  H     -2.685778    8.822723   -0.489684
  H     -3.280828    8.560480    1.135978

 Multiplicity           Mult            ....    1
 Number of Electrons    NEL             ....   18
 Basis Dimension        Dim             ....  172

ORBITAL ENERGIES
----------------

  NO   OCC          E(Eh)            E(eV)
   0   2.0000     -19.225532      -523.1533
   1   2.0000     -10.312267      -280.6111
   2   2.0000      -1.131672       -30.7944
   3   2.0000      -0.798498       -21.7282
   4   2.0000      -0.610965       -16.6252
   5   2.0000      -0.543587       -14.7917
   6   2.0000      -0.522442       -14.2164
   7   2.0000      -0.436726       -11.8839
   8   2.0000      -0.372397       -10.1334
   9   0.0000       0.072494         1.9727
  10   0.0000       0.124042         3.3754
  11   0.0000       0.151382         4.1193
  12   0.0000       0.176550         4.8042
  13   0.0000       0.193959         5.2779

MULLIKEN ATOMIC CHARGES
-----------------------
   0 C :   -0.000327
   1 O :   -0.001329
   2 H :   -0.001462
   3 H :    0.000008
   4 H :    0.000008
   5 H :    0.000034
   6 C :   -0.160543
   7 O :   -0.476416
   8 H :    0.305068
   9 H :    0.124397
  10 H :    0.097810
  11 H :    0.112752
Sum of atomic charges:   -0.0000000

LOEWDIN ATOMIC CHARGES
----------------------
   0 C :   -0.000558
   1 O :   -0.008305
   2 H :   -0.002190
   3 H :   -0.000016
   4 H :   -0.000015
   5 H :   -0.000014
   6 C :   -0.361323
   7 O :   -0.080852
   8 H :    0.156214
   9 H :    0.112593
  10 H :    0.099250
  11 H :    0.085216

  Mayer bond orders larger than 0.1
B(  6-C ,  7-O ) :   0.9819 B(  6-C ,  9-H ) :   0.9737 B(  6-C , 10-H ) :   0.9752
B(  6-C , 11-H ) :   0.9771 B(  7-O ,  8-H ) :   0.9137

Dispersion correction           -0.000232951
FINAL SINGLE POINT ENERGY      -115.734463721825

DIPOLE MOMENT
-------------
                                X             Y             Z
Electronic contribution:     -0.24030      -1.69847      -0.20018
Nuclear contribution   :     -0.22251       2.21740       0.18123
                        -----------------------------------------
Total Dipole Moment    :     -0.46281       0.51894      -0.01895
                        -----------------------------------------
Magnitude (a.u.)       :      0.69559
Magnitude (Debye)      :      1.76806

Rotational constants in cm-1:     4.295980     0.822711     0.790335
Rotational constants in MHz : 128790.228792 24664.263125 23693.634729

                             ****ORCA TERMINATED NORMALLY****
TOTAL RUN TIME: 0 days 0 hours 1 minutes 9 seconds 394 msec
