                         Program Version 4.1.2  - RELEASE  -
|  1> #Run DFT-D3 single point of the dimer
|  2> ! wB97X-D3 def2-TZVP TIGHTSCF CHELPG PMODEL PAL8
|  3>
|  4> %base "10-49_DFT_AB"
|  5>
|  6> %scf
|  7> MaxIter 1000
|  8> end
|  9>
| 10> * xyz 0 1
| 11>   C                      6.640702             1.118679             1.001048
| 12>   O                      7.266035             -0.143782            1.123999
| 13>   H                      7.994274             -0.063849            0.473445
| 14>   H                      5.730766             1.058960             0.469523
| 15>   H                      6.333335             1.429739             2.003741
| 16>   H                      7.222567             1.942048             0.618447
| 17>   C                      5.976764             -2.944571            2.875113
| 18>   O                      5.492957             -1.661611            2.561883
| 19>   H                      5.915873             -1.521271            1.681005
| 20>   H                      7.009396             -2.873774            3.214714
| 21>   H                      5.431324             -3.376674            3.701166
| 22>   H                      5.992161             -3.649090            2.055239
| 23> *
| 24>
| 25> #Run DFT-D3 single point of the molecule with dimer basis set
| 26> $new_job
| 27> %base "10-49_DFT_A"
| 28> ! wB97X-D3 def2-TZVP TIGHTSCF CHELPG PMODEL
| 29>
| 30> %scf
| 31> MaxIter 1000
| 32> end
| 33>
| 34> * xyz 0 1
| 35>   C                      6.640702             1.118679             1.001048
| 36>   O                      7.266035             -0.143782            1.123999
| 37>   H                      7.994274             -0.063849            0.473445
| 38>   H                      5.730766             1.058960             0.469523
| 39>   H                      6.333335             1.429739             2.003741
| 40>   H                      7.222567             1.942048             0.618447
| 41>   C                    : 5.976764             -2.944571            2.875113
| 42>   O                    : 5.492957             -1.661611            2.561883
| 43>   H                    : 5.915873             -1.521271            1.681005
| 44>   H                    : 7.009396             -2.873774            3.214714
| 45>   H                    : 5.431324             -3.376674            3.701166
| 46>   H                    : 5.992161             -3.649090            2.055239
| 47> *
| 48>
| 49> #Run DFT-D3 single point of the particle with dimer basis set
| 50> $new_job
| 51> %base "10-49_DFT_B"
| 52> ! wB97X-D3 def2-TZVP TIGHTSCF CHELPG PMODEL
| 53>
| 54> %scf
| 55> MaxIter 1000
| 56> end
| 57>
| 58> * xyz 0 1
| 59>   C                    : 6.640702             1.118679             1.001048
| 60>   O                    : 7.266035             -0.143782            1.123999
| 61>   H                    : 7.994274             -0.063849            0.473445
| 62>   H                    : 5.730766             1.058960             0.469523
| 63>   H                    : 6.333335             1.429739             2.003741
| 64>   H                    : 7.222567             1.942048             0.618447
| 65>   C                      5.976764             -2.944571            2.875113
| 66>   O                      5.492957             -1.661611            2.561883
| 67>   H                      5.915873             -1.521271            1.681005
| 68>   H                      7.009396             -2.873774            3.214714
| 69>   H                      5.431324             -3.376674            3.701166
| 70>   H                      5.992161             -3.649090            2.055239
| 71> *
| 72>
| 73>                          ****END OF INPUT****
 Total Charge           Charge          ....    0
 Multiplicity           Mult            ....    1
 Number of Electrons    NEL             ....   36
Dispersion correction           -0.001738010
FINAL SINGLE POINT ENERGY      -231.469733684700
Dispersion correction           -0.000239590
FINAL SINGLE POINT ENERGY      -115.731531425051

CARTESIAN COORDINATES (ANGSTROEM)
---------------------------------
  C      6.640702    1.118679    1.001048
  O      7.266035   -0.143782    1.123999
  H      7.994274   -0.063849    0.473445
  H      5.730766    1.058960    0.469523
  H      6.333335    1.429739    2.003741
  H      7.222567    1.942048    0.618447
  C      5.976764   -2.944571    2.875113
  O      5.492957   -1.661611    2.561883
  H      5.915873   -1.521271    1.681005
  H      7.009396   -2.873774    3.214714
  H      5.431324   -3.376674    3.701166
  H      5.992161   -3.649090    2.055239

 Multiplicity           Mult            ....    1
 Number of Electrons    NEL             ....   18
 Basis Dimension        Dim             ....  172

ORBITAL ENERGIES
----------------

  NO   OCC          E(Eh)            E(eV)
   0   2.0000     -19.237660      -523.4833
   1   2.0000     -10.308601      -280.5113
   2   2.0000      -1.140214       -31.0268
   3   2.0000      -0.793617       -21.5954
   4   2.0000      -0.612430       -16.6651
   5   2.0000      -0.540294       -14.7022
   6   2.0000      -0.529106       -14.3977
   7   2.0000      -0.445519       -12.1232
   8   2.0000      -0.372903       -10.1472
   9   0.0000       0.076483         2.0812
  10   0.0000       0.127548         3.4708
  11   0.0000       0.158214         4.3052
  12   0.0000       0.168595         4.5877
  13   0.0000       0.190190         5.1753

MULLIKEN ATOMIC CHARGES
-----------------------
   0 C :   -0.002680
   1 O :   -0.006426
   2 H :   -0.000332
   3 H :   -0.000350
   4 H :   -0.001352
   5 H :    0.000044
   6 C :   -0.181958
   7 O :   -0.447602
   8 H :    0.318107
   9 H :    0.099101
  10 H :    0.117999
  11 H :    0.105451
Sum of atomic charges:   -0.0000000

LOEWDIN ATOMIC CHARGES
----------------------
   0 C :   -0.007688
   1 O :   -0.021923
   2 H :   -0.000905
   3 H :   -0.000560
   4 H :   -0.001425
   5 H :   -0.000087
   6 C :   -0.397582
   7 O :   -0.061108
   8 H :    0.200123
   9 H :    0.094229
  10 H :    0.105029
  11 H :    0.091895

  Mayer bond orders larger than 0.1
B(  6-C ,  7-O ) :   1.0121 B(  6-C ,  9-H ) :   0.9765 B(  6-C , 10-H ) :   0.9751
B(  6-C , 11-H ) :   0.9798 B(  7-O ,  8-H ) :   0.8966

Dispersion correction           -0.000219968
FINAL SINGLE POINT ENERGY      -115.733777937316

DIPOLE MOMENT
-------------
                                X             Y             Z
Electronic contribution:     -0.83601       1.68199      -0.29026
Nuclear contribution   :      1.26500      -2.10147      -0.11073
                        -----------------------------------------
Total Dipole Moment    :      0.42899      -0.41948      -0.40100
                        -----------------------------------------
Magnitude (a.u.)       :      0.72166
Magnitude (Debye)      :      1.83432

Rotational constants in cm-1:     4.299517     0.847213     0.808680
Rotational constants in MHz : 128896.273107 25398.804923 24243.618052

                             ****ORCA TERMINATED NORMALLY****
TOTAL RUN TIME: 0 days 0 hours 1 minutes 7 seconds 408 msec
