                         Program Version 4.1.2  - RELEASE  -
|  1> #Run DFT geometry optimization
|  2> ! wB97X-D3 def2-TZVP TIGHTSCF Grid5 FinalGrid6 Opt CHELPG PAL4
|  3>
|  4> %base "5_geo_opt"
|  5> %geom MaxIter 500
|  6> end
|  7>
|  8> %geom
|  9>   Constraints
| 10>     { A 5 0 4 C }
| 11>   end
| 12> end
| 13>
| 14>
| 15> * xyz 0 1
| 16>   C                    3.011308             -1.180897            0.598492
| 17>   O                    4.394673             -1.128050            0.874308
| 18>   H                    4.772196             -0.379022            0.412493
| 19>   H                    2.806434             -1.318965            -0.469350
| 20>   H                    2.611632             -2.040265            1.135898
| 21>   H                    2.484757             -0.284491            0.945659
| 22> *
| 23>
| 24>                          ****END OF INPUT****
 Total Charge           Charge          ....    0
 Multiplicity           Mult            ....    1
 Number of Electrons    NEL             ....   18
Dispersion correction           -0.000239267
FINAL SINGLE POINT ENERGY      -115.738051352966
Dispersion correction            ... done
                    ***********************HURRAY********************

CARTESIAN COORDINATES (ANGSTROEM)
---------------------------------
  C      3.011350   -1.180929    0.598535
  O      4.394688   -1.128029    0.874285
  H      4.772175   -0.378989    0.412484
  H      2.806443   -1.318972   -0.469308
  H      2.611545   -2.040277    1.135863
  H      2.484800   -0.284494    0.945641

 Multiplicity           Mult            ....    1
 Number of Electrons    NEL             ....   18
 Basis Dimension        Dim             ....   86

ORBITAL ENERGIES
----------------

  NO   OCC          E(Eh)            E(eV)
   0   2.0000     -19.228081      -523.2227
   1   2.0000     -10.315110      -280.6884
   2   2.0000      -1.136811       -30.9342
   3   2.0000      -0.795345       -21.6424
   4   2.0000      -0.611599       -16.6425
   5   2.0000      -0.541770       -14.7423
   6   2.0000      -0.526338       -14.3224
   7   2.0000      -0.433792       -11.8041
   8   2.0000      -0.373603       -10.1663
   9   0.0000       0.116644         3.1740
  10   0.0000       0.156677         4.2634
  11   0.0000       0.202578         5.5124
  12   0.0000       0.205116         5.5815
  13   0.0000       0.226372         6.1599

MULLIKEN ATOMIC CHARGES
-----------------------
   0 C :   -0.150850
   1 O :   -0.477638
   2 H :    0.313016
   3 H :    0.098621
   4 H :    0.118226
   5 H :    0.098626
Sum of atomic charges:   -0.0000000

LOEWDIN ATOMIC CHARGES
----------------------
   0 C :   -0.385189
   1 O :   -0.076072
   2 H :    0.165784
   3 H :    0.093395
   4 H :    0.108687
   5 H :    0.093394

  Mayer bond orders larger than 0.1
B(  0-C ,  1-O ) :   0.9987 B(  0-C ,  3-H ) :   0.9755 B(  0-C ,  4-H ) :   0.9749
B(  0-C ,  5-H ) :   0.9755 B(  1-O ,  2-H ) :   0.9002

Dispersion correction           -0.000239257
FINAL SINGLE POINT ENERGY      -115.738051367277

DIPOLE MOMENT
-------------
                                X             Y             Z
Electronic contribution:      1.75602      -0.02826       0.41985
Nuclear contribution   :     -2.06580       0.47583      -0.81748
                        -----------------------------------------
Total Dipole Moment    :     -0.30978       0.44758      -0.39763
                        -----------------------------------------
Magnitude (a.u.)       :      0.67409
Magnitude (Debye)      :      1.71340

Rotational constants in cm-1:     4.292987     0.833823     0.804930
Rotational constants in MHz : 128700.500326 24997.379030 24131.186382

                             ****ORCA TERMINATED NORMALLY****
TOTAL RUN TIME: 0 days 0 hours 0 minutes 35 seconds 423 msec
