                         Program Version 4.1.2  - RELEASE  -
|  1> #Run DFT-D3 single point of the dimer
|  2> ! wB97X-D3 def2-TZVP TIGHTSCF CHELPG PMODEL PAL8
|  3>
|  4> %base "18-182_DFT_AB"
|  5>
|  6> %scf
|  7> MaxIter 1000
|  8> end
|  9>
| 10> * xyz 0 1
| 11>   C                      -0.818865            -8.262982            3.889639
| 12>   O                      -0.804588            -7.200547            4.826738
| 13>   H                      -1.389967            -6.553482            4.480454
| 14>   H                      -0.558544            -9.264849            4.220882
| 15>   H                      -1.754608            -8.437277            3.463253
| 16>   H                      -0.071885            -7.988574            3.128661
| 17>   C                      -2.821279            -4.018960            3.426932
| 18>   O                      -1.694309            -4.510608            4.047991
| 19>   H                      -0.937718            -4.038095            3.738168
| 20>   H                      -2.660955            -4.031095            2.353406
| 21>   H                      -3.755240            -4.648577            3.567780
| 22>   H                      -3.052784            -2.989722            3.669558
| 23> *
| 24>
| 25> #Run DFT-D3 single point of the molecule with dimer basis set
| 26> $new_job
| 27> %base "18-182_DFT_A"
| 28> ! wB97X-D3 def2-TZVP TIGHTSCF CHELPG PMODEL
| 29>
| 30> %scf
| 31> MaxIter 1000
| 32> end
| 33>
| 34> * xyz 0 1
| 35>   C                      -0.818865            -8.262982            3.889639
| 36>   O                      -0.804588            -7.200547            4.826738
| 37>   H                      -1.389967            -6.553482            4.480454
| 38>   H                      -0.558544            -9.264849            4.220882
| 39>   H                      -1.754608            -8.437277            3.463253
| 40>   H                      -0.071885            -7.988574            3.128661
| 41>   C                    : -2.821279            -4.018960            3.426932
| 42>   O                    : -1.694309            -4.510608            4.047991
| 43>   H                    : -0.937718            -4.038095            3.738168
| 44>   H                    : -2.660955            -4.031095            2.353406
| 45>   H                    : -3.755240            -4.648577            3.567780
| 46>   H                    : -3.052784            -2.989722            3.669558
| 47> *
| 48>
| 49> #Run DFT-D3 single point of the particle with dimer basis set
| 50> $new_job
| 51> %base "18-182_DFT_B"
| 52> ! wB97X-D3 def2-TZVP TIGHTSCF CHELPG PMODEL
| 53>
| 54> %scf
| 55> MaxIter 1000
| 56> end
| 57>
| 58> * xyz 0 1
| 59>   C                    : -0.818865            -8.262982            3.889639
| 60>   O                    : -0.804588            -7.200547            4.826738
| 61>   H                    : -1.389967            -6.553482            4.480454
| 62>   H                    : -0.558544            -9.264849            4.220882
| 63>   H                    : -1.754608            -8.437277            3.463253
| 64>   H                    : -0.071885            -7.988574            3.128661
| 65>   C                      -2.821279            -4.018960            3.426932
| 66>   O                      -1.694309            -4.510608            4.047991
| 67>   H                      -0.937718            -4.038095            3.738168
| 68>   H                      -2.660955            -4.031095            2.353406
| 69>   H                      -3.755240            -4.648577            3.567780
| 70>   H                      -3.052784            -2.989722            3.669558
| 71> *
| 72>
| 73>                          ****END OF INPUT****
 Total Charge           Charge          ....    0
 Multiplicity           Mult            ....    1
 Number of Electrons    NEL             ....   36
Dispersion correction           -0.001500265
FINAL SINGLE POINT ENERGY      -231.467823628737
Dispersion correction           -0.000230533
FINAL SINGLE POINT ENERGY      -115.728859269056

CARTESIAN COORDINATES (ANGSTROEM)
---------------------------------
  C     -0.818865   -8.262982    3.889639
  O     -0.804588   -7.200547    4.826738
  H     -1.389967   -6.553482    4.480454
  H     -0.558544   -9.264849    4.220882
  H     -1.754608   -8.437277    3.463253
  H     -0.071885   -7.988574    3.128661
  C     -2.821279   -4.018960    3.426932
  O     -1.694309   -4.510608    4.047991
  H     -0.937718   -4.038095    3.738168
  H     -2.660955   -4.031095    2.353406
  H     -3.755240   -4.648577    3.567780
  H     -3.052784   -2.989722    3.669558

 Multiplicity           Mult            ....    1
 Number of Electrons    NEL             ....   18
 Basis Dimension        Dim             ....  172

ORBITAL ENERGIES
----------------

  NO   OCC          E(Eh)            E(eV)
   0   2.0000     -19.230402      -523.2858
   1   2.0000     -10.312542      -280.6185
   2   2.0000      -1.151792       -31.3418
   3   2.0000      -0.795567       -21.6485
   4   2.0000      -0.623177       -16.9575
   5   2.0000      -0.545894       -14.8545
   6   2.0000      -0.532506       -14.4902
   7   2.0000      -0.428032       -11.6474
   8   2.0000      -0.372411       -10.1338
   9   0.0000       0.096874         2.6361
  10   0.0000       0.123471         3.3598
  11   0.0000       0.151663         4.1270
  12   0.0000       0.188828         5.1383
  13   0.0000       0.206437         5.6174

MULLIKEN ATOMIC CHARGES
-----------------------
   0 C :   -0.001613
   1 O :    0.001088
   2 H :   -0.008653
   3 H :   -0.000211
   4 H :   -0.000102
   5 H :   -0.000232
   6 C :   -0.158419
   7 O :   -0.462051
   8 H :    0.315637
   9 H :    0.099254
  10 H :    0.118722
  11 H :    0.096581
Sum of atomic charges:   -0.0000000

LOEWDIN ATOMIC CHARGES
----------------------
   0 C :   -0.001756
   1 O :   -0.005467
   2 H :   -0.029780
   3 H :   -0.000051
   4 H :   -0.000066
   5 H :   -0.000177
   6 C :   -0.414956
   7 O :   -0.012090
   8 H :    0.164470
   9 H :    0.091900
  10 H :    0.117667
  11 H :    0.090306

  Mayer bond orders larger than 0.1
B(  6-C ,  7-O ) :   0.9887 B(  6-C ,  9-H ) :   0.9860 B(  6-C , 10-H ) :   0.9721
B(  6-C , 11-H ) :   0.9696 B(  7-O ,  8-H ) :   0.8958

Dispersion correction           -0.000227561
FINAL SINGLE POINT ENERGY      -115.732863342507

DIPOLE MOMENT
-------------
                                X             Y             Z
Electronic contribution:      1.44662      -0.72129       1.01632
Nuclear contribution   :     -1.38334       1.21952      -1.46963
                        -----------------------------------------
Total Dipole Moment    :      0.06327       0.49823      -0.45331
                        -----------------------------------------
Magnitude (a.u.)       :      0.67655
Magnitude (Debye)      :      1.71965

Rotational constants in cm-1:     4.398391     0.859720     0.825497
Rotational constants in MHz : 131860.430756 25773.770942 24747.782847

                             ****ORCA TERMINATED NORMALLY****
TOTAL RUN TIME: 0 days 0 hours 1 minutes 1 seconds 455 msec
