                         Program Version 4.1.2  - RELEASE  -
|  1> #Run DFT-D3 single point of the dimer
|  2> ! wB97X-D3 def2-TZVP TIGHTSCF CHELPG PMODEL PAL8
|  3>
|  4> %base "22-86_DFT_AB"
|  5>
|  6> %scf
|  7> MaxIter 1000
|  8> end
|  9>
| 10> * xyz 0 1
| 11>   C                      2.808889             0.844054             -8.414163
| 12>   O                      2.751306             -0.322919            -7.643315
| 13>   H                      2.321928             -0.062151            -6.767259
| 14>   H                      3.391022             0.885911             -9.374107
| 15>   H                      1.750066             0.987597             -8.760820
| 16>   H                      3.044555             1.683032             -7.747926
| 17>   C                      2.337473             3.686751             -9.965855
| 18>   O                      3.482262             3.632745             -10.707156
| 19>   H                      3.953443             4.382835             -10.336825
| 20>   H                      1.706733             2.764936             -10.048201
| 21>   H                      2.579097             3.920902             -8.912619
| 22>   H                      1.756712             4.539307             -10.240447
| 23> *
| 24>
| 25> #Run DFT-D3 single point of the molecule with dimer basis set
| 26> $new_job
| 27> %base "22-86_DFT_A"
| 28> ! wB97X-D3 def2-TZVP TIGHTSCF CHELPG PMODEL
| 29>
| 30> %scf
| 31> MaxIter 1000
| 32> end
| 33>
| 34> * xyz 0 1
| 35>   C                      2.808889             0.844054             -8.414163
| 36>   O                      2.751306             -0.322919            -7.643315
| 37>   H                      2.321928             -0.062151            -6.767259
| 38>   H                      3.391022             0.885911             -9.374107
| 39>   H                      1.750066             0.987597             -8.760820
| 40>   H                      3.044555             1.683032             -7.747926
| 41>   C                    : 2.337473             3.686751             -9.965855
| 42>   O                    : 3.482262             3.632745             -10.707156
| 43>   H                    : 3.953443             4.382835             -10.336825
| 44>   H                    : 1.706733             2.764936             -10.048201
| 45>   H                    : 2.579097             3.920902             -8.912619
| 46>   H                    : 1.756712             4.539307             -10.240447
| 47> *
| 48>
| 49> #Run DFT-D3 single point of the particle with dimer basis set
| 50> $new_job
| 51> %base "22-86_DFT_B"
| 52> ! wB97X-D3 def2-TZVP TIGHTSCF CHELPG PMODEL
| 53>
| 54> %scf
| 55> MaxIter 1000
| 56> end
| 57>
| 58> * xyz 0 1
| 59>   C                    : 2.808889             0.844054             -8.414163
| 60>   O                    : 2.751306             -0.322919            -7.643315
| 61>   H                    : 2.321928             -0.062151            -6.767259
| 62>   H                    : 3.391022             0.885911             -9.374107
| 63>   H                    : 1.750066             0.987597             -8.760820
| 64>   H                    : 3.044555             1.683032             -7.747926
| 65>   C                      2.337473             3.686751             -9.965855
| 66>   O                      3.482262             3.632745             -10.707156
| 67>   H                      3.953443             4.382835             -10.336825
| 68>   H                      1.706733             2.764936             -10.048201
| 69>   H                      2.579097             3.920902             -8.912619
| 70>   H                      1.756712             4.539307             -10.240447
| 71> *
| 72>
| 73>                          ****END OF INPUT****
 Total Charge           Charge          ....    0
 Multiplicity           Mult            ....    1
 Number of Electrons    NEL             ....   36
Dispersion correction           -0.001896841
FINAL SINGLE POINT ENERGY      -231.453092111774
Dispersion correction           -0.000226306
FINAL SINGLE POINT ENERGY      -115.723842767158

CARTESIAN COORDINATES (ANGSTROEM)
---------------------------------
  C      2.808889    0.844054   -8.414163
  O      2.751306   -0.322919   -7.643315
  H      2.321928   -0.062151   -6.767259
  H      3.391022    0.885911   -9.374107
  H      1.750066    0.987597   -8.760820
  H      3.044555    1.683032   -7.747926
  C      2.337473    3.686751   -9.965855
  O      3.482262    3.632745  -10.707156
  H      3.953443    4.382835  -10.336825
  H      1.706733    2.764936  -10.048201
  H      2.579097    3.920902   -8.912619
  H      1.756712    4.539307  -10.240447

 Multiplicity           Mult            ....    1
 Number of Electrons    NEL             ....   18
 Basis Dimension        Dim             ....  172

ORBITAL ENERGIES
----------------

  NO   OCC          E(Eh)            E(eV)
   0   2.0000     -19.232339      -523.3386
   1   2.0000     -10.310615      -280.5661
   2   2.0000      -1.159854       -31.5612
   3   2.0000      -0.788315       -21.4512
   4   2.0000      -0.625251       -17.0139
   5   2.0000      -0.544764       -14.8238
   6   2.0000      -0.534313       -14.5394
   7   2.0000      -0.441612       -12.0169
   8   2.0000      -0.367731       -10.0065
   9   0.0000       0.089474         2.4347
  10   0.0000       0.115720         3.1489
  11   0.0000       0.161307         4.3894
  12   0.0000       0.172978         4.7070
  13   0.0000       0.190154         5.1744

MULLIKEN ATOMIC CHARGES
-----------------------
   0 C :    0.000418
   1 O :    0.000188
   2 H :    0.000043
   3 H :   -0.001204
   4 H :   -0.000583
   5 H :    0.000216
   6 C :   -0.189656
   7 O :   -0.448730
   8 H :    0.317114
   9 H :    0.120747
  10 H :    0.094318
  11 H :    0.107130
Sum of atomic charges:    0.0000000

LOEWDIN ATOMIC CHARGES
----------------------
   0 C :   -0.015157
   1 O :   -0.000043
   2 H :   -0.000007
   3 H :   -0.002879
   4 H :   -0.006246
   5 H :   -0.003293
   6 C :   -0.422611
   7 O :   -0.036119
   8 H :    0.180778
   9 H :    0.120913
  10 H :    0.097748
  11 H :    0.086915

  Mayer bond orders larger than 0.1
B(  6-C ,  7-O ) :   0.9999 B(  6-C ,  9-H ) :   0.9709 B(  6-C , 10-H ) :   0.9906
B(  6-C , 11-H ) :   0.9725 B(  7-O ,  8-H ) :   0.8991

Dispersion correction           -0.000193300
FINAL SINGLE POINT ENERGY      -115.728868432268

DIPOLE MOMENT
-------------
                                X             Y             Z
Electronic contribution:      1.49104      -0.30661      -1.16530
Nuclear contribution   :     -1.60703       0.80650       1.65020
                        -----------------------------------------
Total Dipole Moment    :     -0.11598       0.49989       0.48490
                        -----------------------------------------
Magnitude (a.u.)       :      0.70602
Magnitude (Debye)      :      1.79457

Rotational constants in cm-1:     4.226710     0.898714     0.846256
Rotational constants in MHz : 126713.581864 26942.774763 25370.117908

                             ****ORCA TERMINATED NORMALLY****
TOTAL RUN TIME: 0 days 0 hours 0 minutes 59 seconds 565 msec
