                         Program Version 4.1.2  - RELEASE  -
|  1> #Run DFT-D3 single point of the dimer
|  2> ! wB97X-D3 def2-TZVP TIGHTSCF CHELPG PMODEL PAL8
|  3>
|  4> %base "10-166_DFT_AB"
|  5>
|  6> %scf
|  7> MaxIter 1000
|  8> end
|  9>
| 10> * xyz 0 1
| 11>   C                      -5.550638            -1.771051            -1.060697
| 12>   O                      -4.211625            -1.399807            -0.899603
| 13>   H                      -4.270984            -0.495730            -0.560299
| 14>   H                      -6.043490            -1.981702            -0.062435
| 15>   H                      -6.039602            -0.992687            -1.678579
| 16>   H                      -5.596667            -2.756360            -1.464270
| 17>   C                      -1.317540            -4.116525            -0.831856
| 18>   O                      -2.596649            -3.719682            -0.393180
| 19>   H                      -2.812329            -2.915960            -0.926577
| 20>   H                      -1.308331            -5.199716            -1.104723
| 21>   H                      -1.039961            -3.543789            -1.693734
| 22>   H                      -0.520644            -3.873342            -0.139509
| 23> *
| 24>
| 25> #Run DFT-D3 single point of the molecule with dimer basis set
| 26> $new_job
| 27> %base "10-166_DFT_A"
| 28> ! wB97X-D3 def2-TZVP TIGHTSCF CHELPG PMODEL
| 29>
| 30> %scf
| 31> MaxIter 1000
| 32> end
| 33>
| 34> * xyz 0 1
| 35>   C                      -5.550638            -1.771051            -1.060697
| 36>   O                      -4.211625            -1.399807            -0.899603
| 37>   H                      -4.270984            -0.495730            -0.560299
| 38>   H                      -6.043490            -1.981702            -0.062435
| 39>   H                      -6.039602            -0.992687            -1.678579
| 40>   H                      -5.596667            -2.756360            -1.464270
| 41>   C                    : -1.317540            -4.116525            -0.831856
| 42>   O                    : -2.596649            -3.719682            -0.393180
| 43>   H                    : -2.812329            -2.915960            -0.926577
| 44>   H                    : -1.308331            -5.199716            -1.104723
| 45>   H                    : -1.039961            -3.543789            -1.693734
| 46>   H                    : -0.520644            -3.873342            -0.139509
| 47> *
| 48>
| 49> #Run DFT-D3 single point of the particle with dimer basis set
| 50> $new_job
| 51> %base "10-166_DFT_B"
| 52> ! wB97X-D3 def2-TZVP TIGHTSCF CHELPG PMODEL
| 53>
| 54> %scf
| 55> MaxIter 1000
| 56> end
| 57>
| 58> * xyz 0 1
| 59>   C                    : -5.550638            -1.771051            -1.060697
| 60>   O                    : -4.211625            -1.399807            -0.899603
| 61>   H                    : -4.270984            -0.495730            -0.560299
| 62>   H                    : -6.043490            -1.981702            -0.062435
| 63>   H                    : -6.039602            -0.992687            -1.678579
| 64>   H                    : -5.596667            -2.756360            -1.464270
| 65>   C                      -1.317540            -4.116525            -0.831856
| 66>   O                      -2.596649            -3.719682            -0.393180
| 67>   H                      -2.812329            -2.915960            -0.926577
| 68>   H                      -1.308331            -5.199716            -1.104723
| 69>   H                      -1.039961            -3.543789            -1.693734
| 70>   H                      -0.520644            -3.873342            -0.139509
| 71> *
| 72>
| 73>                          ****END OF INPUT****
 Total Charge           Charge          ....    0
 Multiplicity           Mult            ....    1
 Number of Electrons    NEL             ....   36
Dispersion correction           -0.001508099
FINAL SINGLE POINT ENERGY      -231.469700899659
Dispersion correction           -0.000219690
FINAL SINGLE POINT ENERGY      -115.731099699031

CARTESIAN COORDINATES (ANGSTROEM)
---------------------------------
  C     -5.550638   -1.771051   -1.060697
  O     -4.211625   -1.399807   -0.899603
  H     -4.270984   -0.495730   -0.560299
  H     -6.043490   -1.981702   -0.062435
  H     -6.039602   -0.992687   -1.678579
  H     -5.596667   -2.756360   -1.464270
  C     -1.317540   -4.116525   -0.831856
  O     -2.596649   -3.719682   -0.393180
  H     -2.812329   -2.915960   -0.926577
  H     -1.308331   -5.199716   -1.104723
  H     -1.039961   -3.543789   -1.693734
  H     -0.520644   -3.873342   -0.139509

 Multiplicity           Mult            ....    1
 Number of Electrons    NEL             ....   18
 Basis Dimension        Dim             ....  172

ORBITAL ENERGIES
----------------

  NO   OCC          E(Eh)            E(eV)
   0   2.0000     -19.234070      -523.3857
   1   2.0000     -10.310808      -280.5713
   2   2.0000      -1.135111       -30.8879
   3   2.0000      -0.792492       -21.5648
   4   2.0000      -0.613545       -16.6954
   5   2.0000      -0.541683       -14.7399
   6   2.0000      -0.525818       -14.3082
   7   2.0000      -0.433559       -11.7977
   8   2.0000      -0.374320       -10.1858
   9   0.0000       0.076736         2.0881
  10   0.0000       0.123421         3.3585
  11   0.0000       0.154792         4.2121
  12   0.0000       0.169374         4.6089
  13   0.0000       0.194347         5.2885

MULLIKEN ATOMIC CHARGES
-----------------------
   0 C :    0.000735
   1 O :   -0.000657
   2 H :   -0.000173
   3 H :   -0.000074
   4 H :    0.000026
   5 H :   -0.002622
   6 C :   -0.171975
   7 O :   -0.458354
   8 H :    0.314750
   9 H :    0.111870
  10 H :    0.100545
  11 H :    0.105929
Sum of atomic charges:   -0.0000000

LOEWDIN ATOMIC CHARGES
----------------------
   0 C :   -0.004078
   1 O :   -0.015376
   2 H :   -0.000757
   3 H :   -0.000110
   4 H :   -0.000045
   5 H :   -0.001449
   6 C :   -0.392772
   7 O :   -0.076937
   8 H :    0.197423
   9 H :    0.107679
  10 H :    0.091643
  11 H :    0.094779

  Mayer bond orders larger than 0.1
B(  6-C ,  7-O ) :   1.0159 B(  6-C ,  9-H ) :   0.9744 B(  6-C , 10-H ) :   0.9927
B(  6-C , 11-H ) :   0.9686 B(  7-O ,  8-H ) :   0.8977

Dispersion correction           -0.000239809
FINAL SINGLE POINT ENERGY      -115.732248251481

DIPOLE MOMENT
-------------
                                X             Y             Z
Electronic contribution:     -1.67813       0.35084       0.72913
Nuclear contribution   :      2.05033       0.02432      -1.25899
                        -----------------------------------------
Total Dipole Moment    :      0.37220       0.37516      -0.52986
                        -----------------------------------------
Magnitude (a.u.)       :      0.74835
Magnitude (Debye)      :      1.90215

Rotational constants in cm-1:     4.265216     0.836510     0.805681
Rotational constants in MHz : 127867.966827 25077.952274 24153.701696

                             ****ORCA TERMINATED NORMALLY****
TOTAL RUN TIME: 0 days 0 hours 1 minutes 5 seconds 594 msec
