                         Program Version 4.1.2  - RELEASE  -
|  1> #Run DFT-D3 single point of the dimer
|  2> ! wB97X-D3 def2-TZVP TIGHTSCF CHELPG PMODEL PAL8
|  3>
|  4> %base "11-133_DFT_AB"
|  5>
|  6> %scf
|  7> MaxIter 1000
|  8> end
|  9>
| 10> * xyz 0 1
| 11>   C                      -3.148170            5.526536             0.250592
| 12>   O                      -4.122243            6.461500             0.653780
| 13>   H                      -4.972779            6.142392             0.328687
| 14>   H                      -2.964292            5.774731             -0.804132
| 15>   H                      -2.171916            5.713092             0.804986
| 16>   H                      -3.408570            4.525718             0.398298
| 17>   C                      -1.565759            10.114965            0.947112
| 18>   O                      -0.651042            9.463522             1.843248
| 19>   H                      -1.008176            8.657511             2.181224
| 20>   H                      -2.065920            10.949498            1.515335
| 21>   H                      -1.085724            10.532903            0.026117
| 22>   H                      -2.413181            9.499275             0.663878
| 23> *
| 24>
| 25> #Run DFT-D3 single point of the molecule with dimer basis set
| 26> $new_job
| 27> %base "11-133_DFT_A"
| 28> ! wB97X-D3 def2-TZVP TIGHTSCF CHELPG PMODEL
| 29>
| 30> %scf
| 31> MaxIter 1000
| 32> end
| 33>
| 34> * xyz 0 1
| 35>   C                      -3.148170            5.526536             0.250592
| 36>   O                      -4.122243            6.461500             0.653780
| 37>   H                      -4.972779            6.142392             0.328687
| 38>   H                      -2.964292            5.774731             -0.804132
| 39>   H                      -2.171916            5.713092             0.804986
| 40>   H                      -3.408570            4.525718             0.398298
| 41>   C                    : -1.565759            10.114965            0.947112
| 42>   O                    : -0.651042            9.463522             1.843248
| 43>   H                    : -1.008176            8.657511             2.181224
| 44>   H                    : -2.065920            10.949498            1.515335
| 45>   H                    : -1.085724            10.532903            0.026117
| 46>   H                    : -2.413181            9.499275             0.663878
| 47> *
| 48>
| 49> #Run DFT-D3 single point of the particle with dimer basis set
| 50> $new_job
| 51> %base "11-133_DFT_B"
| 52> ! wB97X-D3 def2-TZVP TIGHTSCF CHELPG PMODEL
| 53>
| 54> %scf
| 55> MaxIter 1000
| 56> end
| 57>
| 58> * xyz 0 1
| 59>   C                    : -3.148170            5.526536             0.250592
| 60>   O                    : -4.122243            6.461500             0.653780
| 61>   H                    : -4.972779            6.142392             0.328687
| 62>   H                    : -2.964292            5.774731             -0.804132
| 63>   H                    : -2.171916            5.713092             0.804986
| 64>   H                    : -3.408570            4.525718             0.398298
| 65>   C                      -1.565759            10.114965            0.947112
| 66>   O                      -0.651042            9.463522             1.843248
| 67>   H                      -1.008176            8.657511             2.181224
| 68>   H                      -2.065920            10.949498            1.515335
| 69>   H                      -1.085724            10.532903            0.026117
| 70>   H                      -2.413181            9.499275             0.663878
| 71> *
| 72>
| 73>                          ****END OF INPUT****
 Total Charge           Charge          ....    0
 Multiplicity           Mult            ....    1
 Number of Electrons    NEL             ....   36
Dispersion correction           -0.001083435
FINAL SINGLE POINT ENERGY      -231.465582046136
Dispersion correction           -0.000224914
FINAL SINGLE POINT ENERGY      -115.731721636719

CARTESIAN COORDINATES (ANGSTROEM)
---------------------------------
  C     -3.148170    5.526536    0.250592
  O     -4.122243    6.461500    0.653780
  H     -4.972779    6.142392    0.328687
  H     -2.964292    5.774731   -0.804132
  H     -2.171916    5.713092    0.804986
  H     -3.408570    4.525718    0.398298
  C     -1.565759   10.114965    0.947112
  O     -0.651042    9.463522    1.843248
  H     -1.008176    8.657511    2.181224
  H     -2.065920   10.949498    1.515335
  H     -1.085724   10.532903    0.026117
  H     -2.413181    9.499275    0.663878

 Multiplicity           Mult            ....    1
 Number of Electrons    NEL             ....   18
 Basis Dimension        Dim             ....  172

ORBITAL ENERGIES
----------------

  NO   OCC          E(Eh)            E(eV)
   0   2.0000     -19.228581      -523.2363
   1   2.0000     -10.320890      -280.8457
   2   2.0000      -1.130669       -30.7671
   3   2.0000      -0.796126       -21.6637
   4   2.0000      -0.613044       -16.6818
   5   2.0000      -0.534067       -14.5327
   6   2.0000      -0.520964       -14.1762
   7   2.0000      -0.433689       -11.8013
   8   2.0000      -0.372226       -10.1288
   9   0.0000       0.072990         1.9862
  10   0.0000       0.119814         3.2603
  11   0.0000       0.144365         3.9284
  12   0.0000       0.164620         4.4796
  13   0.0000       0.185681         5.0526

MULLIKEN ATOMIC CHARGES
-----------------------
   0 C :    0.000482
   1 O :   -0.000087
   2 H :   -0.000023
   3 H :   -0.000102
   4 H :   -0.000714
   5 H :   -0.000011
   6 C :   -0.173054
   7 O :   -0.479438
   8 H :    0.315939
   9 H :    0.105651
  10 H :    0.119655
  11 H :    0.111701
Sum of atomic charges:   -0.0000000

LOEWDIN ATOMIC CHARGES
----------------------
   0 C :   -0.000256
   1 O :   -0.000238
   2 H :   -0.000020
   3 H :   -0.000036
   4 H :   -0.000334
   5 H :   -0.000003
   6 C :   -0.374414
   7 O :   -0.087517
   8 H :    0.155892
   9 H :    0.103946
  10 H :    0.109236
  11 H :    0.093744

  Mayer bond orders larger than 0.1
B(  6-C ,  7-O ) :   0.9999 B(  6-C ,  9-H ) :   0.9777 B(  6-C , 10-H ) :   0.9693
B(  6-C , 11-H ) :   0.9763 B(  7-O ,  8-H ) :   0.9004

Dispersion correction           -0.000271893
FINAL SINGLE POINT ENERGY      -115.732021711440

DIPOLE MOMENT
-------------
                                X             Y             Z
Electronic contribution:      1.32529      -0.82830       1.03095
Nuclear contribution   :     -1.96127       0.54317      -1.18228
                        -----------------------------------------
Total Dipole Moment    :     -0.63597      -0.28513      -0.15133
                        -----------------------------------------
Magnitude (a.u.)       :      0.71321
Magnitude (Debye)      :      1.81283

Rotational constants in cm-1:     4.312852     0.797795     0.772798
Rotational constants in MHz : 129296.055303 23917.306472 23167.899600

                             ****ORCA TERMINATED NORMALLY****
TOTAL RUN TIME: 0 days 0 hours 1 minutes 13 seconds 152 msec
