                         Program Version 4.1.2  - RELEASE  -
|  1> #Run DFT-D3 single point of the dimer
|  2> ! wB97X-D3 def2-TZVP TIGHTSCF CHELPG PMODEL PAL8
|  3>
|  4> %base "14-68_DFT_AB"
|  5>
|  6> %scf
|  7> MaxIter 1000
|  8> end
|  9>
| 10> * xyz 0 1
| 11>   C                      -0.584460            9.833385             -7.370606
| 12>   O                      0.262817             9.973202             -6.259486
| 13>   H                      -0.083268            10.436978            -5.479950
| 14>   H                      -1.227082            10.668618            -7.422794
| 15>   H                      0.023229             9.743565             -8.282138
| 16>   H                      -1.232432            8.935795             -7.342917
| 17>   C                      2.696248             10.480721            -2.964482
| 18>   O                      2.714947             10.013328            -4.271748
| 19>   H                      2.424851             9.111299             -4.231627
| 20>   H                      3.398466             9.940133             -2.295471
| 21>   H                      2.892753             11.565934            -2.936864
| 22>   H                      1.728609             10.348861            -2.513574
| 23> *
| 24>
| 25> #Run DFT-D3 single point of the molecule with dimer basis set
| 26> $new_job
| 27> %base "14-68_DFT_A"
| 28> ! wB97X-D3 def2-TZVP TIGHTSCF CHELPG PMODEL
| 29>
| 30> %scf
| 31> MaxIter 1000
| 32> end
| 33>
| 34> * xyz 0 1
| 35>   C                      -0.584460            9.833385             -7.370606
| 36>   O                      0.262817             9.973202             -6.259486
| 37>   H                      -0.083268            10.436978            -5.479950
| 38>   H                      -1.227082            10.668618            -7.422794
| 39>   H                      0.023229             9.743565             -8.282138
| 40>   H                      -1.232432            8.935795             -7.342917
| 41>   C                    : 2.696248             10.480721            -2.964482
| 42>   O                    : 2.714947             10.013328            -4.271748
| 43>   H                    : 2.424851             9.111299             -4.231627
| 44>   H                    : 3.398466             9.940133             -2.295471
| 45>   H                    : 2.892753             11.565934            -2.936864
| 46>   H                    : 1.728609             10.348861            -2.513574
| 47> *
| 48>
| 49> #Run DFT-D3 single point of the particle with dimer basis set
| 50> $new_job
| 51> %base "14-68_DFT_B"
| 52> ! wB97X-D3 def2-TZVP TIGHTSCF CHELPG PMODEL
| 53>
| 54> %scf
| 55> MaxIter 1000
| 56> end
| 57>
| 58> * xyz 0 1
| 59>   C                    : -0.584460            9.833385             -7.370606
| 60>   O                    : 0.262817             9.973202             -6.259486
| 61>   H                    : -0.083268            10.436978            -5.479950
| 62>   H                    : -1.227082            10.668618            -7.422794
| 63>   H                    : 0.023229             9.743565             -8.282138
| 64>   H                    : -1.232432            8.935795             -7.342917
| 65>   C                      2.696248             10.480721            -2.964482
| 66>   O                      2.714947             10.013328            -4.271748
| 67>   H                      2.424851             9.111299             -4.231627
| 68>   H                      3.398466             9.940133             -2.295471
| 69>   H                      2.892753             11.565934            -2.936864
| 70>   H                      1.728609             10.348861            -2.513574
| 71> *
| 72>
| 73>                          ****END OF INPUT****
 Total Charge           Charge          ....    0
 Multiplicity           Mult            ....    1
 Number of Electrons    NEL             ....   36
Dispersion correction           -0.001307590
FINAL SINGLE POINT ENERGY      -231.468129549908
Dispersion correction           -0.000256089
FINAL SINGLE POINT ENERGY      -115.732720541814

CARTESIAN COORDINATES (ANGSTROEM)
---------------------------------
  C     -0.584460    9.833385   -7.370606
  O      0.262817    9.973202   -6.259486
  H     -0.083268   10.436978   -5.479950
  H     -1.227082   10.668618   -7.422794
  H      0.023229    9.743565   -8.282138
  H     -1.232432    8.935795   -7.342917
  C      2.696248   10.480721   -2.964482
  O      2.714947   10.013328   -4.271748
  H      2.424851    9.111299   -4.231627
  H      3.398466    9.940133   -2.295471
  H      2.892753   11.565934   -2.936864
  H      1.728609   10.348861   -2.513574

 Multiplicity           Mult            ....    1
 Number of Electrons    NEL             ....   18
 Basis Dimension        Dim             ....  172

ORBITAL ENERGIES
----------------

  NO   OCC          E(Eh)            E(eV)
   0   2.0000     -19.231355      -523.3118
   1   2.0000     -10.311969      -280.6029
   2   2.0000      -1.149204       -31.2714
   3   2.0000      -0.794784       -21.6272
   4   2.0000      -0.620056       -16.8726
   5   2.0000      -0.542565       -14.7639
   6   2.0000      -0.530733       -14.4420
   7   2.0000      -0.436898       -11.8886
   8   2.0000      -0.372801       -10.1444
   9   0.0000       0.089804         2.4437
  10   0.0000       0.118009         3.2112
  11   0.0000       0.155262         4.2249
  12   0.0000       0.178165         4.8481
  13   0.0000       0.201381         5.4799

MULLIKEN ATOMIC CHARGES
-----------------------
   0 C :   -0.000348
   1 O :   -0.001305
   2 H :   -0.003565
   3 H :    0.000021
   4 H :    0.000079
   5 H :   -0.000031
   6 C :   -0.162608
   7 O :   -0.461843
   8 H :    0.314973
   9 H :    0.094317
  10 H :    0.118068
  11 H :    0.102241
Sum of atomic charges:    0.0000000

LOEWDIN ATOMIC CHARGES
----------------------
   0 C :   -0.000347
   1 O :   -0.005656
   2 H :   -0.003687
   3 H :   -0.000010
   4 H :   -0.000010
   5 H :   -0.000014
   6 C :   -0.407442
   7 O :   -0.044560
   8 H :    0.165994
   9 H :    0.095163
  10 H :    0.111340
  11 H :    0.089227

  Mayer bond orders larger than 0.1
B(  6-C ,  7-O ) :   0.9973 B(  6-C ,  9-H ) :   0.9738 B(  6-C , 10-H ) :   0.9741
B(  6-C , 11-H ) :   0.9803 B(  7-O ,  8-H ) :   0.9004

Dispersion correction           -0.000223325
FINAL SINGLE POINT ENERGY      -115.735804917814

DIPOLE MOMENT
-------------
                                X             Y             Z
Electronic contribution:      0.11020      -0.47741      -1.81533
Nuclear contribution   :     -0.31384       0.08820       2.34181
                        -----------------------------------------
Total Dipole Moment    :     -0.20364      -0.38921       0.52648
                        -----------------------------------------
Magnitude (a.u.)       :      0.68566
Magnitude (Debye)      :      1.74282

Rotational constants in cm-1:     4.321568     0.858122     0.821995
Rotational constants in MHz : 129557.346840 25725.844926 24642.781211

                             ****ORCA TERMINATED NORMALLY****
TOTAL RUN TIME: 0 days 0 hours 0 minutes 57 seconds 967 msec
