                         Program Version 4.1.2  - RELEASE  -
|  1> #Run DFT-D3 single point of the dimer
|  2> ! wB97X-D3 def2-TZVP TIGHTSCF CHELPG PMODEL PAL8
|  3>
|  4> %base "19-129_DFT_AB"
|  5>
|  6> %scf
|  7> MaxIter 1000
|  8> end
|  9>
| 10> * xyz 0 1
| 11>   C                      5.736915             6.096399             -5.489844
| 12>   O                      5.154897             4.938208             -6.015251
| 13>   H                      5.492586             4.122501             -5.681083
| 14>   H                      5.357355             6.307799             -4.486453
| 15>   H                      6.834772             6.055645             -5.421734
| 16>   H                      5.315370             6.965713             -6.146136
| 17>   C                      1.413420             4.479925             -4.724324
| 18>   O                      2.738144             4.102890             -4.675040
| 19>   H                      3.316369             4.514014             -5.358579
| 20>   H                      1.236397             5.142390             -3.834124
| 21>   H                      1.254941             4.977743             -5.708738
| 22>   H                      0.739423             3.585240             -4.732096
| 23> *
| 24>
| 25> #Run DFT-D3 single point of the molecule with dimer basis set
| 26> $new_job
| 27> %base "19-129_DFT_A"
| 28> ! wB97X-D3 def2-TZVP TIGHTSCF CHELPG PMODEL
| 29>
| 30> %scf
| 31> MaxIter 1000
| 32> end
| 33>
| 34> * xyz 0 1
| 35>   C                      5.736915             6.096399             -5.489844
| 36>   O                      5.154897             4.938208             -6.015251
| 37>   H                      5.492586             4.122501             -5.681083
| 38>   H                      5.357355             6.307799             -4.486453
| 39>   H                      6.834772             6.055645             -5.421734
| 40>   H                      5.315370             6.965713             -6.146136
| 41>   C                    : 1.413420             4.479925             -4.724324
| 42>   O                    : 2.738144             4.102890             -4.675040
| 43>   H                    : 3.316369             4.514014             -5.358579
| 44>   H                    : 1.236397             5.142390             -3.834124
| 45>   H                    : 1.254941             4.977743             -5.708738
| 46>   H                    : 0.739423             3.585240             -4.732096
| 47> *
| 48>
| 49> #Run DFT-D3 single point of the particle with dimer basis set
| 50> $new_job
| 51> %base "19-129_DFT_B"
| 52> ! wB97X-D3 def2-TZVP TIGHTSCF CHELPG PMODEL
| 53>
| 54> %scf
| 55> MaxIter 1000
| 56> end
| 57>
| 58> * xyz 0 1
| 59>   C                    : 5.736915             6.096399             -5.489844
| 60>   O                    : 5.154897             4.938208             -6.015251
| 61>   H                    : 5.492586             4.122501             -5.681083
| 62>   H                    : 5.357355             6.307799             -4.486453
| 63>   H                    : 6.834772             6.055645             -5.421734
| 64>   H                    : 5.315370             6.965713             -6.146136
| 65>   C                      1.413420             4.479925             -4.724324
| 66>   O                      2.738144             4.102890             -4.675040
| 67>   H                      3.316369             4.514014             -5.358579
| 68>   H                      1.236397             5.142390             -3.834124
| 69>   H                      1.254941             4.977743             -5.708738
| 70>   H                      0.739423             3.585240             -4.732096
| 71> *
| 72>
| 73>                          ****END OF INPUT****
 Total Charge           Charge          ....    0
 Multiplicity           Mult            ....    1
 Number of Electrons    NEL             ....   36
Dispersion correction           -0.001618484
FINAL SINGLE POINT ENERGY      -231.470443987507
Dispersion correction           -0.000259027
FINAL SINGLE POINT ENERGY      -115.731747157954

CARTESIAN COORDINATES (ANGSTROEM)
---------------------------------
  C      5.736915    6.096399   -5.489844
  O      5.154897    4.938208   -6.015251
  H      5.492586    4.122501   -5.681083
  H      5.357355    6.307799   -4.486453
  H      6.834772    6.055645   -5.421734
  H      5.315370    6.965713   -6.146136
  C      1.413420    4.479925   -4.724324
  O      2.738144    4.102890   -4.675040
  H      3.316369    4.514014   -5.358579
  H      1.236397    5.142390   -3.834124
  H      1.254941    4.977743   -5.708738
  H      0.739423    3.585240   -4.732096

 Multiplicity           Mult            ....    1
 Number of Electrons    NEL             ....   18
 Basis Dimension        Dim             ....  172

ORBITAL ENERGIES
----------------

  NO   OCC          E(Eh)            E(eV)
   0   2.0000     -19.226052      -523.1675
   1   2.0000     -10.318696      -280.7860
   2   2.0000      -1.138312       -30.9750
   3   2.0000      -0.787225       -21.4215
   4   2.0000      -0.611672       -16.6444
   5   2.0000      -0.546230       -14.8637
   6   2.0000      -0.530852       -14.4452
   7   2.0000      -0.415115       -11.2958
   8   2.0000      -0.368232       -10.0201
   9   0.0000       0.073135         1.9901
  10   0.0000       0.127853         3.4791
  11   0.0000       0.149554         4.0696
  12   0.0000       0.174627         4.7518
  13   0.0000       0.185133         5.0377

MULLIKEN ATOMIC CHARGES
-----------------------
   0 C :   -0.003887
   1 O :    0.001470
   2 H :   -0.000561
   3 H :   -0.001141
   4 H :   -0.000255
   5 H :    0.000390
   6 C :   -0.147175
   7 O :   -0.475629
   8 H :    0.317123
   9 H :    0.105490
  10 H :    0.097191
  11 H :    0.106985
Sum of atomic charges:   -0.0000000

LOEWDIN ATOMIC CHARGES
----------------------
   0 C :   -0.005205
   1 O :   -0.015648
   2 H :   -0.002897
   3 H :   -0.001444
   4 H :   -0.000123
   5 H :   -0.000128
   6 C :   -0.414983
   7 O :   -0.062077
   8 H :    0.193916
   9 H :    0.104151
  10 H :    0.099323
  11 H :    0.105115

  Mayer bond orders larger than 0.1
B(  6-C ,  7-O ) :   1.0027 B(  6-C ,  9-H ) :   0.9732 B(  6-C , 10-H ) :   0.9910
B(  6-C , 11-H ) :   0.9683 B(  7-O ,  8-H ) :   0.8913

Dispersion correction           -0.000240841
FINAL SINGLE POINT ENERGY      -115.729712768426

DIPOLE MOMENT
-------------
                                X             Y             Z
Electronic contribution:      1.61285      -0.54675       0.20331
Nuclear contribution   :     -1.74011       0.94933      -0.69545
                        -----------------------------------------
Total Dipole Moment    :     -0.12725       0.40258      -0.49214
                        -----------------------------------------
Magnitude (a.u.)       :      0.64843
Magnitude (Debye)      :      1.64818

Rotational constants in cm-1:     4.084774     0.859070     0.834487
Rotational constants in MHz : 122458.449287 25754.279583 25017.302566

                             ****ORCA TERMINATED NORMALLY****
TOTAL RUN TIME: 0 days 0 hours 0 minutes 49 seconds 419 msec
