                         Program Version 4.1.2  - RELEASE  -
|  1> #Run DFT-D3 single point of the dimer
|  2> ! wB97X-D3 def2-TZVP TIGHTSCF  CHELPG PAL8
|  3>
|  4> %base "40_charges"
|  5>
|  6> %scf
|  7> MaxIter 1000
|  8> end
|  9> %output
| 10>   Print[ P_Mayer ] 1
| 11>   Print[ P_NatPop ] 1
| 12>   Print[ P_Hirshfeld ] 1
| 13>   Print[ P_Mulliken ] 1
| 14>   Print [ P_Loewdin ] 1
| 15> end
| 16>
| 17> * xyz 0 1
| 18>   C                      7.481525             1.630705             -9.706942
| 19>   O                      7.305832             2.892107             -10.315881
| 20>   H                      7.918083             3.487517             -9.913062
| 21>   H                      7.539194             1.611494             -8.580569
| 22>   H                      6.676496             0.997205             -9.958592
| 23>   H                      8.437238             1.157887             -9.923243
| 24> *
| 25>
| 26>                          ****END OF INPUT****

CARTESIAN COORDINATES (ANGSTROEM)
---------------------------------
  C      7.481525    1.630705   -9.706942
  O      7.305832    2.892107  -10.315881
  H      7.918083    3.487517   -9.913062
  H      7.539194    1.611494   -8.580569
  H      6.676496    0.997205   -9.958592
  H      8.437238    1.157887   -9.923243

 Total Charge           Charge          ....    0
 Multiplicity           Mult            ....    1
 Number of Electrons    NEL             ....   18
 Basis Dimension        Dim             ....   86

ORBITAL ENERGIES
----------------

  NO   OCC          E(Eh)            E(eV)
   0   2.0000     -19.233019      -523.3571
   1   2.0000     -10.312081      -280.6060
   2   2.0000      -1.142236       -31.0818
   3   2.0000      -0.800416       -21.7804
   4   2.0000      -0.620085       -16.8734
   5   2.0000      -0.538778       -14.6609
   6   2.0000      -0.522966       -14.2306
   7   2.0000      -0.443156       -12.0589
   8   2.0000      -0.372941       -10.1482
   9   0.0000       0.117165         3.1882
  10   0.0000       0.153242         4.1699
  11   0.0000       0.200217         5.4482
  12   0.0000       0.209482         5.7003
  13   0.0000       0.233732         6.3602

MULLIKEN ATOMIC CHARGES
-----------------------
   0 C :   -0.172841
   1 O :   -0.464746
   2 H :    0.312576
   3 H :    0.095103
   4 H :    0.128710
   5 H :    0.101198
Sum of atomic charges:   -0.0000000

LOEWDIN ATOMIC CHARGES
----------------------
   0 C :   -0.390425
   1 O :   -0.061672
   2 H :    0.160315
   3 H :    0.098886
   4 H :    0.100496
   5 H :    0.092401

  Mayer bond orders larger than 0.1
B(  0-C ,  1-O ) :   1.0038 B(  0-C ,  3-H ) :   0.9732 B(  0-C ,  4-H ) :   0.9758
B(  0-C ,  5-H ) :   0.9725 B(  1-O ,  2-H ) :   0.9034

Dispersion correction           -0.000252440
FINAL SINGLE POINT ENERGY      -115.732717295256

DIPOLE MOMENT
-------------
                                X             Y             Z
Electronic contribution:     -0.40143       1.64195      -1.01239
Nuclear contribution   :      0.85651      -1.75484       1.50724
                        -----------------------------------------
Total Dipole Moment    :      0.45508      -0.11290       0.49485
                        -----------------------------------------
Magnitude (a.u.)       :      0.68171
Magnitude (Debye)      :      1.73276

Rotational constants in cm-1:     4.476558     0.827804     0.792768
Rotational constants in MHz : 134203.819401 24816.941392 23766.573010

                             ****ORCA TERMINATED NORMALLY****
TOTAL RUN TIME: 0 days 0 hours 0 minutes 41 seconds 911 msec
