                         Program Version 4.1.2  - RELEASE  -
|  1> #Run DFT-D3 single point of the dimer
|  2> ! wB97X-D3 def2-TZVP TIGHTSCF CHELPG PMODEL PAL8
|  3>
|  4> %base "11-32_DFT_AB"
|  5>
|  6> %scf
|  7> MaxIter 1000
|  8> end
|  9>
| 10> * xyz 0 1
| 11>   C                      -4.262804            -3.298811            4.931557
| 12>   O                      -3.864564            -2.942529            6.210114
| 13>   H                      -2.899731            -2.834253            6.123950
| 14>   H                      -4.286093            -4.428996            4.908977
| 15>   H                      -5.227939            -2.841040            4.620827
| 16>   H                      -3.491225            -3.035285            4.130311
| 17>   C                      -7.659629            -4.472034            5.252038
| 18>   O                      -8.518829            -4.748822            4.136675
| 19>   H                      -9.275437            -4.126430            4.062496
| 20>   H                      -6.893624            -5.275388            5.267629
| 21>   H                      -7.228614            -3.404280            5.310936
| 22>   H                      -8.259196            -4.497080            6.162074
| 23> *
| 24>
| 25> #Run DFT-D3 single point of the molecule with dimer basis set
| 26> $new_job
| 27> %base "11-32_DFT_A"
| 28> ! wB97X-D3 def2-TZVP TIGHTSCF CHELPG PMODEL
| 29>
| 30> %scf
| 31> MaxIter 1000
| 32> end
| 33>
| 34> * xyz 0 1
| 35>   C                      -4.262804            -3.298811            4.931557
| 36>   O                      -3.864564            -2.942529            6.210114
| 37>   H                      -2.899731            -2.834253            6.123950
| 38>   H                      -4.286093            -4.428996            4.908977
| 39>   H                      -5.227939            -2.841040            4.620827
| 40>   H                      -3.491225            -3.035285            4.130311
| 41>   C                    : -7.659629            -4.472034            5.252038
| 42>   O                    : -8.518829            -4.748822            4.136675
| 43>   H                    : -9.275437            -4.126430            4.062496
| 44>   H                    : -6.893624            -5.275388            5.267629
| 45>   H                    : -7.228614            -3.404280            5.310936
| 46>   H                    : -8.259196            -4.497080            6.162074
| 47> *
| 48>
| 49> #Run DFT-D3 single point of the particle with dimer basis set
| 50> $new_job
| 51> %base "11-32_DFT_B"
| 52> ! wB97X-D3 def2-TZVP TIGHTSCF CHELPG PMODEL
| 53>
| 54> %scf
| 55> MaxIter 1000
| 56> end
| 57>
| 58> * xyz 0 1
| 59>   C                    : -4.262804            -3.298811            4.931557
| 60>   O                    : -3.864564            -2.942529            6.210114
| 61>   H                    : -2.899731            -2.834253            6.123950
| 62>   H                    : -4.286093            -4.428996            4.908977
| 63>   H                    : -5.227939            -2.841040            4.620827
| 64>   H                    : -3.491225            -3.035285            4.130311
| 65>   C                      -7.659629            -4.472034            5.252038
| 66>   O                      -8.518829            -4.748822            4.136675
| 67>   H                      -9.275437            -4.126430            4.062496
| 68>   H                      -6.893624            -5.275388            5.267629
| 69>   H                      -7.228614            -3.404280            5.310936
| 70>   H                      -8.259196            -4.497080            6.162074
| 71> *
| 72>
| 73>                          ****END OF INPUT****
 Total Charge           Charge          ....    0
 Multiplicity           Mult            ....    1
 Number of Electrons    NEL             ....   36
Dispersion correction           -0.001634549
FINAL SINGLE POINT ENERGY      -231.460856071327
Dispersion correction           -0.000233823
FINAL SINGLE POINT ENERGY      -115.729863362281

CARTESIAN COORDINATES (ANGSTROEM)
---------------------------------
  C     -4.262804   -3.298811    4.931557
  O     -3.864564   -2.942529    6.210114
  H     -2.899731   -2.834253    6.123950
  H     -4.286093   -4.428996    4.908977
  H     -5.227939   -2.841040    4.620827
  H     -3.491225   -3.035285    4.130311
  C     -7.659629   -4.472034    5.252038
  O     -8.518829   -4.748822    4.136675
  H     -9.275437   -4.126430    4.062496
  H     -6.893624   -5.275388    5.267629
  H     -7.228614   -3.404280    5.310936
  H     -8.259196   -4.497080    6.162074

 Multiplicity           Mult            ....    1
 Number of Electrons    NEL             ....   18
 Basis Dimension        Dim             ....  172

ORBITAL ENERGIES
----------------

  NO   OCC          E(Eh)            E(eV)
   0   2.0000     -19.230800      -523.2967
   1   2.0000     -10.323488      -280.9164
   2   2.0000      -1.122940       -30.5568
   3   2.0000      -0.791372       -21.5343
   4   2.0000      -0.609002       -16.5718
   5   2.0000      -0.526194       -14.3185
   6   2.0000      -0.523315       -14.2401
   7   2.0000      -0.433747       -11.8028
   8   2.0000      -0.368994       -10.0408
   9   0.0000       0.089258         2.4288
  10   0.0000       0.113179         3.0798
  11   0.0000       0.151750         4.1293
  12   0.0000       0.170151         4.6300
  13   0.0000       0.177943         4.8421

MULLIKEN ATOMIC CHARGES
-----------------------
   0 C :   -0.007992
   1 O :    0.000780
   2 H :    0.000047
   3 H :    0.000187
   4 H :    0.005515
   5 H :   -0.000261
   6 C :   -0.152907
   7 O :   -0.486734
   8 H :    0.316846
   9 H :    0.126464
  10 H :    0.094627
  11 H :    0.103426
Sum of atomic charges:   -0.0000000

LOEWDIN ATOMIC CHARGES
----------------------
   0 C :   -0.008873
   1 O :   -0.000050
   2 H :   -0.000010
   3 H :   -0.001632
   4 H :   -0.007878
   5 H :   -0.000065
   6 C :   -0.372147
   7 O :   -0.103721
   8 H :    0.177247
   9 H :    0.116018
  10 H :    0.109012
  11 H :    0.092100

  Mayer bond orders larger than 0.1
B(  6-C ,  7-O ) :   0.9977 B(  6-C ,  9-H ) :   0.9712 B(  6-C , 10-H ) :   0.9631
B(  6-C , 11-H ) :   0.9736 B(  7-O ,  8-H ) :   0.8910

Dispersion correction           -0.000274713
FINAL SINGLE POINT ENERGY      -115.730690411510

DIPOLE MOMENT
-------------
                                X             Y             Z
Electronic contribution:     -0.92849      -0.50208      -1.49162
Nuclear contribution   :      0.76889       0.99605       1.91364
                        -----------------------------------------
Total Dipole Moment    :     -0.15960       0.49397       0.42201
                        -----------------------------------------
Magnitude (a.u.)       :      0.66901
Magnitude (Debye)      :      1.70049

Rotational constants in cm-1:     4.160759     0.806943     0.767176
Rotational constants in MHz : 124736.415357 24191.549897 22999.366388

                             ****ORCA TERMINATED NORMALLY****
TOTAL RUN TIME: 0 days 0 hours 1 minutes 10 seconds 771 msec
