                         Program Version 4.1.2  - RELEASE  -
|  1> #Run DFT-D3 single point of the dimer
|  2> ! wB97X-D3 def2-TZVP TIGHTSCF CHELPG PMODEL PAL8
|  3>
|  4> %base "6-55_DFT_AB"
|  5>
|  6> %scf
|  7> MaxIter 1000
|  8> end
|  9>
| 10> * xyz 0 1
| 11>   C                      0.196325             -0.976893            10.050342
| 12>   O                      1.433650             -0.253384            9.974844
| 13>   H                      1.432420             0.446621             10.619602
| 14>   H                      -0.611933            -0.325739            10.403889
| 15>   H                      -0.103297            -1.288178            8.974143
| 16>   H                      0.344229             -1.799503            10.711079
| 17>   C                      3.347516             2.510579             7.905746
| 18>   O                      2.922121             1.520003             7.053050
| 19>   H                      3.423921             0.693581             7.132739
| 20>   H                      4.440464             2.763975             7.918784
| 21>   H                      2.761968             3.416181             7.826046
| 22>   H                      3.109263             2.132877             8.914459
| 23> *
| 24>
| 25> #Run DFT-D3 single point of the molecule with dimer basis set
| 26> $new_job
| 27> %base "6-55_DFT_A"
| 28> ! wB97X-D3 def2-TZVP TIGHTSCF CHELPG PMODEL
| 29>
| 30> %scf
| 31> MaxIter 1000
| 32> end
| 33>
| 34> * xyz 0 1
| 35>   C                      0.196325             -0.976893            10.050342
| 36>   O                      1.433650             -0.253384            9.974844
| 37>   H                      1.432420             0.446621             10.619602
| 38>   H                      -0.611933            -0.325739            10.403889
| 39>   H                      -0.103297            -1.288178            8.974143
| 40>   H                      0.344229             -1.799503            10.711079
| 41>   C                    : 3.347516             2.510579             7.905746
| 42>   O                    : 2.922121             1.520003             7.053050
| 43>   H                    : 3.423921             0.693581             7.132739
| 44>   H                    : 4.440464             2.763975             7.918784
| 45>   H                    : 2.761968             3.416181             7.826046
| 46>   H                    : 3.109263             2.132877             8.914459
| 47> *
| 48>
| 49> #Run DFT-D3 single point of the particle with dimer basis set
| 50> $new_job
| 51> %base "6-55_DFT_B"
| 52> ! wB97X-D3 def2-TZVP TIGHTSCF CHELPG PMODEL
| 53>
| 54> %scf
| 55> MaxIter 1000
| 56> end
| 57>
| 58> * xyz 0 1
| 59>   C                    : 0.196325             -0.976893            10.050342
| 60>   O                    : 1.433650             -0.253384            9.974844
| 61>   H                    : 1.432420             0.446621             10.619602
| 62>   H                    : -0.611933            -0.325739            10.403889
| 63>   H                    : -0.103297            -1.288178            8.974143
| 64>   H                    : 0.344229             -1.799503            10.711079
| 65>   C                      3.347516             2.510579             7.905746
| 66>   O                      2.922121             1.520003             7.053050
| 67>   H                      3.423921             0.693581             7.132739
| 68>   H                      4.440464             2.763975             7.918784
| 69>   H                      2.761968             3.416181             7.826046
| 70>   H                      3.109263             2.132877             8.914459
| 71> *
| 72>
| 73>                          ****END OF INPUT****
 Total Charge           Charge          ....    0
 Multiplicity           Mult            ....    1
 Number of Electrons    NEL             ....   36
Dispersion correction           -0.001266900
FINAL SINGLE POINT ENERGY      -231.464422005273
Dispersion correction           -0.000246669
FINAL SINGLE POINT ENERGY      -115.732462097217

CARTESIAN COORDINATES (ANGSTROEM)
---------------------------------
  C      0.196325   -0.976893   10.050342
  O      1.433650   -0.253384    9.974844
  H      1.432420    0.446621   10.619602
  H     -0.611933   -0.325739   10.403889
  H     -0.103297   -1.288178    8.974143
  H      0.344229   -1.799503   10.711079
  C      3.347516    2.510579    7.905746
  O      2.922121    1.520003    7.053050
  H      3.423921    0.693581    7.132739
  H      4.440464    2.763975    7.918784
  H      2.761968    3.416181    7.826046
  H      3.109263    2.132877    8.914459

 Multiplicity           Mult            ....    1
 Number of Electrons    NEL             ....   18
 Basis Dimension        Dim             ....  172

ORBITAL ENERGIES
----------------

  NO   OCC          E(Eh)            E(eV)
   0   2.0000     -19.229767      -523.2686
   1   2.0000     -10.312551      -280.6188
   2   2.0000      -1.144296       -31.1379
   3   2.0000      -0.794955       -21.6318
   4   2.0000      -0.617825       -16.8119
   5   2.0000      -0.539612       -14.6836
   6   2.0000      -0.537981       -14.6392
   7   2.0000      -0.425273       -11.5723
   8   2.0000      -0.366247        -9.9661
   9   0.0000       0.084910         2.3105
  10   0.0000       0.118325         3.2198
  11   0.0000       0.148238         4.0337
  12   0.0000       0.169722         4.6184
  13   0.0000       0.201539         5.4842

MULLIKEN ATOMIC CHARGES
-----------------------
   0 C :   -0.000411
   1 O :    0.000192
   2 H :   -0.000121
   3 H :    0.000023
   4 H :   -0.000084
   5 H :   -0.000003
   6 C :   -0.149647
   7 O :   -0.478689
   8 H :    0.322193
   9 H :    0.096807
  10 H :    0.120086
  11 H :    0.089655
Sum of atomic charges:    0.0000000

LOEWDIN ATOMIC CHARGES
----------------------
   0 C :   -0.000280
   1 O :   -0.000985
   2 H :   -0.001025
   3 H :   -0.000001
   4 H :   -0.000076
   5 H :   -0.000007
   6 C :   -0.419329
   7 O :   -0.054076
   8 H :    0.178225
   9 H :    0.096613
  10 H :    0.106446
  11 H :    0.094496

  Mayer bond orders larger than 0.1
B(  6-C ,  7-O ) :   1.0018 B(  6-C ,  9-H ) :   0.9692 B(  6-C , 10-H ) :   0.9693
B(  6-C , 11-H ) :   0.9912 B(  7-O ,  8-H ) :   0.8883

Dispersion correction           -0.000242431
FINAL SINGLE POINT ENERGY      -115.731014796794

DIPOLE MOMENT
-------------
                                X             Y             Z
Electronic contribution:     -0.60942      -1.15666      -1.35412
Nuclear contribution   :      1.07718       0.99986       1.73001
                        -----------------------------------------
Total Dipole Moment    :      0.46776      -0.15680       0.37589
                        -----------------------------------------
Magnitude (a.u.)       :      0.62022
Magnitude (Debye)      :      1.57648

Rotational constants in cm-1:     4.379919     0.856989     0.825838
Rotational constants in MHz : 131306.681390 25691.873368 24757.996974

                             ****ORCA TERMINATED NORMALLY****
TOTAL RUN TIME: 0 days 0 hours 0 minutes 56 seconds 308 msec
