                         Program Version 4.1.2  - RELEASE  -
|  1> #Run DFT-D3 single point of the dimer
|  2> ! wB97X-D3 def2-TZVP TIGHTSCF CHELPG PMODEL PAL8
|  3>
|  4> %base "14-132_DFT_AB"
|  5>
|  6> %scf
|  7> MaxIter 1000
|  8> end
|  9>
| 10> * xyz 0 1
| 11>   C                      6.240257             -3.486396            0.328244
| 12>   O                      7.407682             -3.671008            -0.383972
| 13>   H                      7.952128             -4.335552            -0.003175
| 14>   H                      6.224370             -4.059562            1.284200
| 15>   H                      6.097100             -2.413471            0.559097
| 16>   H                      5.374843             -3.919506            -0.240133
| 17>   C                      11.213368            -3.650369            -2.198534
| 18>   O                      10.073451            -3.009435            -2.593356
| 19>   H                      10.218555            -2.154800            -2.998738
| 20>   H                      11.842974            -3.847001            -3.042106
| 21>   H                      11.816989            -3.031146            -1.530692
| 22>   H                      11.057365            -4.625770            -1.796941
| 23> *
| 24>
| 25> #Run DFT-D3 single point of the molecule with dimer basis set
| 26> $new_job
| 27> %base "14-132_DFT_A"
| 28> ! wB97X-D3 def2-TZVP TIGHTSCF CHELPG PMODEL
| 29>
| 30> %scf
| 31> MaxIter 1000
| 32> end
| 33>
| 34> * xyz 0 1
| 35>   C                      6.240257             -3.486396            0.328244
| 36>   O                      7.407682             -3.671008            -0.383972
| 37>   H                      7.952128             -4.335552            -0.003175
| 38>   H                      6.224370             -4.059562            1.284200
| 39>   H                      6.097100             -2.413471            0.559097
| 40>   H                      5.374843             -3.919506            -0.240133
| 41>   C                    : 11.213368            -3.650369            -2.198534
| 42>   O                    : 10.073451            -3.009435            -2.593356
| 43>   H                    : 10.218555            -2.154800            -2.998738
| 44>   H                    : 11.842974            -3.847001            -3.042106
| 45>   H                    : 11.816989            -3.031146            -1.530692
| 46>   H                    : 11.057365            -4.625770            -1.796941
| 47> *
| 48>
| 49> #Run DFT-D3 single point of the particle with dimer basis set
| 50> $new_job
| 51> %base "14-132_DFT_B"
| 52> ! wB97X-D3 def2-TZVP TIGHTSCF CHELPG PMODEL
| 53>
| 54> %scf
| 55> MaxIter 1000
| 56> end
| 57>
| 58> * xyz 0 1
| 59>   C                    : 6.240257             -3.486396            0.328244
| 60>   O                    : 7.407682             -3.671008            -0.383972
| 61>   H                    : 7.952128             -4.335552            -0.003175
| 62>   H                    : 6.224370             -4.059562            1.284200
| 63>   H                    : 6.097100             -2.413471            0.559097
| 64>   H                    : 5.374843             -3.919506            -0.240133
| 65>   C                      11.213368            -3.650369            -2.198534
| 66>   O                      10.073451            -3.009435            -2.593356
| 67>   H                      10.218555            -2.154800            -2.998738
| 68>   H                      11.842974            -3.847001            -3.042106
| 69>   H                      11.816989            -3.031146            -1.530692
| 70>   H                      11.057365            -4.625770            -1.796941
| 71> *
| 72>
| 73>                          ****END OF INPUT****
 Total Charge           Charge          ....    0
 Multiplicity           Mult            ....    1
 Number of Electrons    NEL             ....   36
Dispersion correction           -0.001012189
FINAL SINGLE POINT ENERGY      -231.463357948470
Dispersion correction           -0.000246373
FINAL SINGLE POINT ENERGY      -115.733495170992

CARTESIAN COORDINATES (ANGSTROEM)
---------------------------------
  C      6.240257   -3.486396    0.328244
  O      7.407682   -3.671008   -0.383972
  H      7.952128   -4.335552   -0.003175
  H      6.224370   -4.059562    1.284200
  H      6.097100   -2.413471    0.559097
  H      5.374843   -3.919506   -0.240133
  C     11.213368   -3.650369   -2.198534
  O     10.073451   -3.009435   -2.593356
  H     10.218555   -2.154800   -2.998738
  H     11.842974   -3.847001   -3.042106
  H     11.816989   -3.031146   -1.530692
  H     11.057365   -4.625770   -1.796941

 Multiplicity           Mult            ....    1
 Number of Electrons    NEL             ....   18
 Basis Dimension        Dim             ....  172

ORBITAL ENERGIES
----------------

  NO   OCC          E(Eh)            E(eV)
   0   2.0000     -19.226567      -523.1815
   1   2.0000     -10.303778      -280.3800
   2   2.0000      -1.147580       -31.2272
   3   2.0000      -0.802044       -21.8247
   4   2.0000      -0.623525       -16.9670
   5   2.0000      -0.549423       -14.9506
   6   2.0000      -0.537030       -14.6133
   7   2.0000      -0.424039       -11.5387
   8   2.0000      -0.367946       -10.0123
   9   0.0000       0.094688         2.5766
  10   0.0000       0.116949         3.1823
  11   0.0000       0.154419         4.2020
  12   0.0000       0.174352         4.7444
  13   0.0000       0.204617         5.5679

MULLIKEN ATOMIC CHARGES
-----------------------
   0 C :   -0.000306
   1 O :   -0.000992
   2 H :   -0.000502
   3 H :    0.000003
   4 H :    0.000013
   5 H :    0.000013
   6 C :   -0.138984
   7 O :   -0.481919
   8 H :    0.320415
   9 H :    0.093869
  10 H :    0.089838
  11 H :    0.118551
Sum of atomic charges:    0.0000000

LOEWDIN ATOMIC CHARGES
----------------------
   0 C :   -0.000193
   1 O :   -0.001915
   2 H :   -0.000521
   3 H :   -0.000005
   4 H :   -0.000007
   5 H :   -0.000004
   6 C :   -0.413563
   7 O :   -0.040448
   8 H :    0.170611
   9 H :    0.089292
  10 H :    0.092376
  11 H :    0.104377

  Mayer bond orders larger than 0.1
B(  6-C ,  7-O ) :   0.9963 B(  6-C ,  9-H ) :   0.9817 B(  6-C , 10-H ) :   0.9827
B(  6-C , 11-H ) :   0.9704 B(  7-O ,  8-H ) :   0.8902

Dispersion correction           -0.000224856
FINAL SINGLE POINT ENERGY      -115.731849236918

DIPOLE MOMENT
-------------
                                X             Y             Z
Electronic contribution:     -1.65148       0.72030      -0.40121
Nuclear contribution   :      2.19506      -0.42348       0.26612
                        -----------------------------------------
Total Dipole Moment    :      0.54358       0.29682      -0.13509
                        -----------------------------------------
Magnitude (a.u.)       :      0.63390
Magnitude (Debye)      :      1.61124

Rotational constants in cm-1:     4.576394     0.871071     0.838499
Rotational constants in MHz : 137196.846451 26114.061215 25137.565828

                             ****ORCA TERMINATED NORMALLY****
TOTAL RUN TIME: 0 days 0 hours 1 minutes 8 seconds 693 msec
