                         Program Version 4.1.2  - RELEASE  -
|  1> #Run DFT-D3 single point of the dimer
|  2> ! wB97X-D3 def2-TZVP TIGHTSCF CHELPG PMODEL PAL8
|  3>
|  4> %base "21-171_DFT_AB"
|  5>
|  6> %scf
|  7> MaxIter 1000
|  8> end
|  9>
| 10> * xyz 0 1
| 11>   C                      -6.898207            7.527341             -0.014018
| 12>   O                      -6.195709            8.706471             -0.277056
| 13>   H                      -6.709130            9.221247             -0.853084
| 14>   H                      -7.207640            6.910421             -0.874348
| 15>   H                      -6.137675            6.988142             0.474784
| 16>   H                      -7.757533            7.676851             0.688648
| 17>   C                      -7.464134            9.077489             -4.046340
| 18>   O                      -7.225650            9.785557             -2.779432
| 19>   H                      -7.747243            10.589431            -2.869290
| 20>   H                      -7.160572            8.063823             -3.955577
| 21>   H                      -8.473431            9.097550             -4.463730
| 22>   H                      -6.783281            9.586541             -4.787921
| 23> *
| 24>
| 25> #Run DFT-D3 single point of the molecule with dimer basis set
| 26> $new_job
| 27> %base "21-171_DFT_A"
| 28> ! wB97X-D3 def2-TZVP TIGHTSCF CHELPG PMODEL
| 29>
| 30> %scf
| 31> MaxIter 1000
| 32> end
| 33>
| 34> * xyz 0 1
| 35>   C                      -6.898207            7.527341             -0.014018
| 36>   O                      -6.195709            8.706471             -0.277056
| 37>   H                      -6.709130            9.221247             -0.853084
| 38>   H                      -7.207640            6.910421             -0.874348
| 39>   H                      -6.137675            6.988142             0.474784
| 40>   H                      -7.757533            7.676851             0.688648
| 41>   C                    : -7.464134            9.077489             -4.046340
| 42>   O                    : -7.225650            9.785557             -2.779432
| 43>   H                    : -7.747243            10.589431            -2.869290
| 44>   H                    : -7.160572            8.063823             -3.955577
| 45>   H                    : -8.473431            9.097550             -4.463730
| 46>   H                    : -6.783281            9.586541             -4.787921
| 47> *
| 48>
| 49> #Run DFT-D3 single point of the particle with dimer basis set
| 50> $new_job
| 51> %base "21-171_DFT_B"
| 52> ! wB97X-D3 def2-TZVP TIGHTSCF CHELPG PMODEL
| 53>
| 54> %scf
| 55> MaxIter 1000
| 56> end
| 57>
| 58> * xyz 0 1
| 59>   C                    : -6.898207            7.527341             -0.014018
| 60>   O                    : -6.195709            8.706471             -0.277056
| 61>   H                    : -6.709130            9.221247             -0.853084
| 62>   H                    : -7.207640            6.910421             -0.874348
| 63>   H                    : -6.137675            6.988142             0.474784
| 64>   H                    : -7.757533            7.676851             0.688648
| 65>   C                      -7.464134            9.077489             -4.046340
| 66>   O                      -7.225650            9.785557             -2.779432
| 67>   H                      -7.747243            10.589431            -2.869290
| 68>   H                      -7.160572            8.063823             -3.955577
| 69>   H                      -8.473431            9.097550             -4.463730
| 70>   H                      -6.783281            9.586541             -4.787921
| 71> *
| 72>
| 73>                          ****END OF INPUT****
 Total Charge           Charge          ....    0
 Multiplicity           Mult            ....    1
 Number of Electrons    NEL             ....   36
Dispersion correction           -0.001688739
FINAL SINGLE POINT ENERGY      -231.469359471318
Dispersion correction           -0.000242091
FINAL SINGLE POINT ENERGY      -115.731696865491

CARTESIAN COORDINATES (ANGSTROEM)
---------------------------------
  C     -6.898207    7.527341   -0.014018
  O     -6.195709    8.706471   -0.277056
  H     -6.709130    9.221247   -0.853084
  H     -7.207640    6.910421   -0.874348
  H     -6.137675    6.988142    0.474784
  H     -7.757533    7.676851    0.688648
  C     -7.464134    9.077489   -4.046340
  O     -7.225650    9.785557   -2.779432
  H     -7.747243   10.589431   -2.869290
  H     -7.160572    8.063823   -3.955577
  H     -8.473431    9.097550   -4.463730
  H     -6.783281    9.586541   -4.787921

 Multiplicity           Mult            ....    1
 Number of Electrons    NEL             ....   18
 Basis Dimension        Dim             ....  172

ORBITAL ENERGIES
----------------

  NO   OCC          E(Eh)            E(eV)
   0   2.0000     -19.233083      -523.3588
   1   2.0000     -10.318188      -280.7722
   2   2.0000      -1.122942       -30.5568
   3   2.0000      -0.797156       -21.6917
   4   2.0000      -0.601475       -16.3670
   5   2.0000      -0.535097       -14.5607
   6   2.0000      -0.518672       -14.1138
   7   2.0000      -0.448245       -12.1974
   8   2.0000      -0.373637       -10.1672
   9   0.0000       0.098442         2.6787
  10   0.0000       0.123796         3.3686
  11   0.0000       0.148118         4.0305
  12   0.0000       0.185968         5.0604
  13   0.0000       0.195857         5.3295

MULLIKEN ATOMIC CHARGES
-----------------------
   0 C :   -0.000469
   1 O :    0.000442
   2 H :   -0.009154
   3 H :   -0.000760
   4 H :   -0.000244
   5 H :   -0.000108
   6 C :   -0.188712
   7 O :   -0.464767
   8 H :    0.310974
   9 H :    0.129304
  10 H :    0.115335
  11 H :    0.108159
Sum of atomic charges:    0.0000000

LOEWDIN ATOMIC CHARGES
----------------------
   0 C :   -0.003300
   1 O :   -0.004891
   2 H :   -0.032149
   3 H :   -0.000425
   4 H :   -0.000066
   5 H :   -0.000065
   6 C :   -0.347734
   7 O :   -0.081373
   8 H :    0.167152
   9 H :    0.100405
  10 H :    0.096733
  11 H :    0.105714

  Mayer bond orders larger than 0.1
B(  6-C ,  7-O ) :   0.9882 B(  6-C ,  9-H ) :   0.9757 B(  6-C , 10-H ) :   0.9637
B(  6-C , 11-H ) :   0.9810 B(  7-O ,  8-H ) :   0.9024

Dispersion correction           -0.000257910
FINAL SINGLE POINT ENERGY      -115.731607888135

DIPOLE MOMENT
-------------
                                X             Y             Z
Electronic contribution:      0.26743       0.67135       1.68617
Nuclear contribution   :     -0.69755      -0.47941      -2.27531
                        -----------------------------------------
Total Dipole Moment    :     -0.43011       0.19194      -0.58914
                        -----------------------------------------
Magnitude (a.u.)       :      0.75427
Magnitude (Debye)      :      1.91720

Rotational constants in cm-1:     4.254962     0.782193     0.756467
Rotational constants in MHz : 127560.547928 23449.556251 22678.304287

                             ****ORCA TERMINATED NORMALLY****
TOTAL RUN TIME: 0 days 0 hours 1 minutes 7 seconds 913 msec
