                         Program Version 4.1.2  - RELEASE  -
|  1> #Run DFT-D3 single point of the dimer
|  2> ! wB97X-D3 def2-TZVP TIGHTSCF CHELPG PMODEL PAL8
|  3>
|  4> %base "12-203_DFT_AB"
|  5>
|  6> %scf
|  7> MaxIter 1000
|  8> end
|  9>
| 10> * xyz 0 1
| 11>   C                      8.756345             5.346527             9.124602
| 12>   O                      7.432067             5.202244             8.847964
| 13>   H                      7.096865             4.293952             8.916372
| 14>   H                      9.291302             4.993951             8.215409
| 15>   H                      9.107427             6.443233             9.263130
| 16>   H                      8.972218             4.789132             10.079502
| 17>   C                      7.449782             1.804632             9.449513
| 18>   O                      6.649201             2.837108             9.922031
| 19>   H                      6.442185             2.662994             10.847190
| 20>   H                      7.806639             2.077789             8.440762
| 21>   H                      8.285517             1.591746             10.104845
| 22>   H                      6.863866             0.925718             9.372464
| 23> *
| 24>
| 25> #Run DFT-D3 single point of the molecule with dimer basis set
| 26> $new_job
| 27> %base "12-203_DFT_A"
| 28> ! wB97X-D3 def2-TZVP TIGHTSCF CHELPG PMODEL
| 29>
| 30> %scf
| 31> MaxIter 1000
| 32> end
| 33>
| 34> * xyz 0 1
| 35>   C                      8.756345             5.346527             9.124602
| 36>   O                      7.432067             5.202244             8.847964
| 37>   H                      7.096865             4.293952             8.916372
| 38>   H                      9.291302             4.993951             8.215409
| 39>   H                      9.107427             6.443233             9.263130
| 40>   H                      8.972218             4.789132             10.079502
| 41>   C                    : 7.449782             1.804632             9.449513
| 42>   O                    : 6.649201             2.837108             9.922031
| 43>   H                    : 6.442185             2.662994             10.847190
| 44>   H                    : 7.806639             2.077789             8.440762
| 45>   H                    : 8.285517             1.591746             10.104845
| 46>   H                    : 6.863866             0.925718             9.372464
| 47> *
| 48>
| 49> #Run DFT-D3 single point of the particle with dimer basis set
| 50> $new_job
| 51> %base "12-203_DFT_B"
| 52> ! wB97X-D3 def2-TZVP TIGHTSCF CHELPG PMODEL
| 53>
| 54> %scf
| 55> MaxIter 1000
| 56> end
| 57>
| 58> * xyz 0 1
| 59>   C                    : 8.756345             5.346527             9.124602
| 60>   O                    : 7.432067             5.202244             8.847964
| 61>   H                    : 7.096865             4.293952             8.916372
| 62>   H                    : 9.291302             4.993951             8.215409
| 63>   H                    : 9.107427             6.443233             9.263130
| 64>   H                    : 8.972218             4.789132             10.079502
| 65>   C                      7.449782             1.804632             9.449513
| 66>   O                      6.649201             2.837108             9.922031
| 67>   H                      6.442185             2.662994             10.847190
| 68>   H                      7.806639             2.077789             8.440762
| 69>   H                      8.285517             1.591746             10.104845
| 70>   H                      6.863866             0.925718             9.372464
| 71> *
| 72>
| 73>                          ****END OF INPUT****
 Total Charge           Charge          ....    0
 Multiplicity           Mult            ....    1
 Number of Electrons    NEL             ....   36
Dispersion correction           -0.002132432
FINAL SINGLE POINT ENERGY      -231.468006671569
Dispersion correction           -0.000233139
FINAL SINGLE POINT ENERGY      -115.726428938731

CARTESIAN COORDINATES (ANGSTROEM)
---------------------------------
  C      8.756345    5.346527    9.124602
  O      7.432067    5.202244    8.847964
  H      7.096865    4.293952    8.916372
  H      9.291302    4.993951    8.215409
  H      9.107427    6.443233    9.263130
  H      8.972218    4.789132   10.079502
  C      7.449782    1.804632    9.449513
  O      6.649201    2.837108    9.922031
  H      6.442185    2.662994   10.847190
  H      7.806639    2.077789    8.440762
  H      8.285517    1.591746   10.104845
  H      6.863866    0.925718    9.372464

 Multiplicity           Mult            ....    1
 Number of Electrons    NEL             ....   18
 Basis Dimension        Dim             ....  172

ORBITAL ENERGIES
----------------

  NO   OCC          E(Eh)            E(eV)
   0   2.0000     -19.228820      -523.2428
   1   2.0000     -10.306654      -280.4583
   2   2.0000      -1.142906       -31.1001
   3   2.0000      -0.795964       -21.6593
   4   2.0000      -0.616907       -16.7869
   5   2.0000      -0.548341       -14.9211
   6   2.0000      -0.529314       -14.4034
   7   2.0000      -0.433443       -11.7946
   8   2.0000      -0.371574       -10.1110
   9   0.0000       0.095990         2.6120
  10   0.0000       0.127151         3.4600
  11   0.0000       0.157299         4.2803
  12   0.0000       0.180752         4.9185
  13   0.0000       0.204875         5.5749

MULLIKEN ATOMIC CHARGES
-----------------------
   0 C :    0.002590
   1 O :    0.002691
   2 H :   -0.008960
   3 H :   -0.000857
   4 H :   -0.000138
   5 H :   -0.004382
   6 C :   -0.150445
   7 O :   -0.469269
   8 H :    0.310631
   9 H :    0.111919
  10 H :    0.100838
  11 H :    0.105381
Sum of atomic charges:    0.0000000

LOEWDIN ATOMIC CHARGES
----------------------
   0 C :   -0.005838
   1 O :   -0.009499
   2 H :   -0.047683
   3 H :   -0.000236
   4 H :   -0.000050
   5 H :   -0.002629
   6 C :   -0.389863
   7 O :   -0.011672
   8 H :    0.171993
   9 H :    0.114046
  10 H :    0.092766
  11 H :    0.088664

  Mayer bond orders larger than 0.1
B(  6-C ,  7-O ) :   0.9779 B(  6-C ,  9-H ) :   0.9790 B(  6-C , 10-H ) :   0.9777
B(  6-C , 11-H ) :   0.9783 B(  7-O ,  8-H ) :   0.8968

Dispersion correction           -0.000215306
FINAL SINGLE POINT ENERGY      -115.735829081883

DIPOLE MOMENT
-------------
                                X             Y             Z
Electronic contribution:     -0.99530       1.36759       0.49259
Nuclear contribution   :      1.16556      -1.89443      -0.08912
                        -----------------------------------------
Total Dipole Moment    :      0.17026      -0.52683       0.40348
                        -----------------------------------------
Magnitude (a.u.)       :      0.68508
Magnitude (Debye)      :      1.74134

Rotational constants in cm-1:     4.328112     0.865205     0.827082
Rotational constants in MHz : 129753.545368 25938.202708 24795.308751

                             ****ORCA TERMINATED NORMALLY****
TOTAL RUN TIME: 0 days 0 hours 1 minutes 14 seconds 671 msec
