                         Program Version 4.1.2  - RELEASE  -
|  1> #Run DFT-D3 single point of the dimer
|  2> ! wB97X-D3 def2-TZVP TIGHTSCF CHELPG PMODEL PAL8
|  3>
|  4> %base "11-196_DFT_AB"
|  5>
|  6> %scf
|  7> MaxIter 1000
|  8> end
|  9>
| 10> * xyz 0 1
| 11>   C                      -0.647582            -4.384071            -10.241415
| 12>   O                      -0.142247            -4.542060            -8.940821
| 13>   H                      0.686996             -5.009222            -8.993098
| 14>   H                      -1.151359            -5.299721            -10.597012
| 15>   H                      -1.486091            -3.639362            -10.310894
| 16>   H                      0.190544             -4.175710            -10.874891
| 17>   C                      -0.783540            -2.851579            -5.279803
| 18>   O                      0.165316             -3.872010            -5.528957
| 19>   H                      -0.106058            -4.265933            -6.371296
| 20>   H                      -1.847360            -3.174461            -5.016422
| 21>   H                      -0.512712            -2.241596            -4.457779
| 22>   H                      -0.964531            -2.237275            -6.136226
| 23> *
| 24>
| 25> #Run DFT-D3 single point of the molecule with dimer basis set
| 26> $new_job
| 27> %base "11-196_DFT_A"
| 28> ! wB97X-D3 def2-TZVP TIGHTSCF CHELPG PMODEL
| 29>
| 30> %scf
| 31> MaxIter 1000
| 32> end
| 33>
| 34> * xyz 0 1
| 35>   C                      -0.647582            -4.384071            -10.241415
| 36>   O                      -0.142247            -4.542060            -8.940821
| 37>   H                      0.686996             -5.009222            -8.993098
| 38>   H                      -1.151359            -5.299721            -10.597012
| 39>   H                      -1.486091            -3.639362            -10.310894
| 40>   H                      0.190544             -4.175710            -10.874891
| 41>   C                    : -0.783540            -2.851579            -5.279803
| 42>   O                    : 0.165316             -3.872010            -5.528957
| 43>   H                    : -0.106058            -4.265933            -6.371296
| 44>   H                    : -1.847360            -3.174461            -5.016422
| 45>   H                    : -0.512712            -2.241596            -4.457779
| 46>   H                    : -0.964531            -2.237275            -6.136226
| 47> *
| 48>
| 49> #Run DFT-D3 single point of the particle with dimer basis set
| 50> $new_job
| 51> %base "11-196_DFT_B"
| 52> ! wB97X-D3 def2-TZVP TIGHTSCF CHELPG PMODEL
| 53>
| 54> %scf
| 55> MaxIter 1000
| 56> end
| 57>
| 58> * xyz 0 1
| 59>   C                    : -0.647582            -4.384071            -10.241415
| 60>   O                    : -0.142247            -4.542060            -8.940821
| 61>   H                    : 0.686996             -5.009222            -8.993098
| 62>   H                    : -1.151359            -5.299721            -10.597012
| 63>   H                    : -1.486091            -3.639362            -10.310894
| 64>   H                    : 0.190544             -4.175710            -10.874891
| 65>   C                      -0.783540            -2.851579            -5.279803
| 66>   O                      0.165316             -3.872010            -5.528957
| 67>   H                      -0.106058            -4.265933            -6.371296
| 68>   H                      -1.847360            -3.174461            -5.016422
| 69>   H                      -0.512712            -2.241596            -4.457779
| 70>   H                      -0.964531            -2.237275            -6.136226
| 71> *
| 72>
| 73>                          ****END OF INPUT****
 Total Charge           Charge          ....    0
 Multiplicity           Mult            ....    1
 Number of Electrons    NEL             ....   36
Dispersion correction           -0.001263350
FINAL SINGLE POINT ENERGY      -231.469593618940
Dispersion correction           -0.000232067
FINAL SINGLE POINT ENERGY      -115.732436061478

CARTESIAN COORDINATES (ANGSTROEM)
---------------------------------
  C     -0.647582   -4.384071  -10.241415
  O     -0.142247   -4.542060   -8.940821
  H      0.686996   -5.009222   -8.993098
  H     -1.151359   -5.299721  -10.597012
  H     -1.486091   -3.639362  -10.310894
  H      0.190544   -4.175710  -10.874891
  C     -0.783540   -2.851579   -5.279803
  O      0.165316   -3.872010   -5.528957
  H     -0.106058   -4.265933   -6.371296
  H     -1.847360   -3.174461   -5.016422
  H     -0.512712   -2.241596   -4.457779
  H     -0.964531   -2.237275   -6.136226

 Multiplicity           Mult            ....    1
 Number of Electrons    NEL             ....   18
 Basis Dimension        Dim             ....  172

ORBITAL ENERGIES
----------------

  NO   OCC          E(Eh)            E(eV)
   0   2.0000     -19.237297      -523.4735
   1   2.0000     -10.312291      -280.6117
   2   2.0000      -1.138600       -30.9829
   3   2.0000      -0.798252       -21.7216
   4   2.0000      -0.615714       -16.7544
   5   2.0000      -0.537659       -14.6304
   6   2.0000      -0.524565       -14.2741
   7   2.0000      -0.444571       -12.0974
   8   2.0000      -0.372988       -10.1495
   9   0.0000       0.072356         1.9689
  10   0.0000       0.119901         3.2627
  11   0.0000       0.143284         3.8990
  12   0.0000       0.173992         4.7346
  13   0.0000       0.193020         5.2524

MULLIKEN ATOMIC CHARGES
-----------------------
   0 C :   -0.000331
   1 O :   -0.000978
   2 H :   -0.000382
   3 H :    0.000010
   4 H :   -0.000001
   5 H :    0.000019
   6 C :   -0.176983
   7 O :   -0.460884
   8 H :    0.315205
   9 H :    0.087563
  10 H :    0.127080
  11 H :    0.109681
Sum of atomic charges:   -0.0000000

LOEWDIN ATOMIC CHARGES
----------------------
   0 C :   -0.000251
   1 O :   -0.003787
   2 H :   -0.000787
   3 H :   -0.000005
   4 H :   -0.000011
   5 H :   -0.000007
   6 C :   -0.391373
   7 O :   -0.071704
   8 H :    0.177423
   9 H :    0.099676
  10 H :    0.100722
  11 H :    0.090103

  Mayer bond orders larger than 0.1
B(  6-C ,  7-O ) :   1.0036 B(  6-C ,  9-H ) :   0.9708 B(  6-C , 10-H ) :   0.9761
B(  6-C , 11-H ) :   0.9766 B(  7-O ,  8-H ) :   0.9035

Dispersion correction           -0.000253052
FINAL SINGLE POINT ENERGY      -115.731996109307

DIPOLE MOMENT
-------------
                                X             Y             Z
Electronic contribution:      1.49673      -1.31120      -0.19132
Nuclear contribution   :     -2.01395       1.48406      -0.24195
                        -----------------------------------------
Total Dipole Moment    :     -0.51721       0.17286      -0.43327
                        -----------------------------------------
Magnitude (a.u.)       :      0.69650
Magnitude (Debye)      :      1.77036

Rotational constants in cm-1:     4.441617     0.822569     0.788500
Rotational constants in MHz : 133156.321451 24659.997581 23638.648422

                             ****ORCA TERMINATED NORMALLY****
TOTAL RUN TIME: 0 days 0 hours 1 minutes 12 seconds 804 msec
