                         Program Version 4.1.2  - RELEASE  -
|  1> #Run DFT-D3 single point of the dimer
|  2> ! wB97X-D3 def2-TZVP TIGHTSCF CHELPG PMODEL PAL8
|  3>
|  4> %base "7-105_DFT_AB"
|  5>
|  6> %scf
|  7> MaxIter 1000
|  8> end
|  9>
| 10> * xyz 0 1
| 11>   C                      -2.638835            -6.614666            -7.420561
| 12>   O                      -2.992376            -6.578243            -8.791841
| 13>   H                      -2.217192            -6.413573            -9.277582
| 14>   H                      -1.667935            -6.968071            -7.283540
| 15>   H                      -2.582873            -5.608869            -6.989358
| 16>   H                      -3.339959            -7.212623            -6.807963
| 17>   C                      -1.063751            -8.098231            -4.243452
| 18>   O                      -2.222787            -8.313218            -5.011875
| 19>   H                      -2.807360            -8.939454            -4.540298
| 20>   H                      -0.253067            -8.872998            -4.413000
| 21>   H                      -0.578344            -7.134077            -4.487361
| 22>   H                      -1.390768            -8.202461            -3.210143
| 23> *
| 24>
| 25> #Run DFT-D3 single point of the molecule with dimer basis set
| 26> $new_job
| 27> %base "7-105_DFT_A"
| 28> ! wB97X-D3 def2-TZVP TIGHTSCF CHELPG PMODEL
| 29>
| 30> %scf
| 31> MaxIter 1000
| 32> end
| 33>
| 34> * xyz 0 1
| 35>   C                      -2.638835            -6.614666            -7.420561
| 36>   O                      -2.992376            -6.578243            -8.791841
| 37>   H                      -2.217192            -6.413573            -9.277582
| 38>   H                      -1.667935            -6.968071            -7.283540
| 39>   H                      -2.582873            -5.608869            -6.989358
| 40>   H                      -3.339959            -7.212623            -6.807963
| 41>   C                    : -1.063751            -8.098231            -4.243452
| 42>   O                    : -2.222787            -8.313218            -5.011875
| 43>   H                    : -2.807360            -8.939454            -4.540298
| 44>   H                    : -0.253067            -8.872998            -4.413000
| 45>   H                    : -0.578344            -7.134077            -4.487361
| 46>   H                    : -1.390768            -8.202461            -3.210143
| 47> *
| 48>
| 49> #Run DFT-D3 single point of the particle with dimer basis set
| 50> $new_job
| 51> %base "7-105_DFT_B"
| 52> ! wB97X-D3 def2-TZVP TIGHTSCF CHELPG PMODEL
| 53>
| 54> %scf
| 55> MaxIter 1000
| 56> end
| 57>
| 58> * xyz 0 1
| 59>   C                    : -2.638835            -6.614666            -7.420561
| 60>   O                    : -2.992376            -6.578243            -8.791841
| 61>   H                    : -2.217192            -6.413573            -9.277582
| 62>   H                    : -1.667935            -6.968071            -7.283540
| 63>   H                    : -2.582873            -5.608869            -6.989358
| 64>   H                    : -3.339959            -7.212623            -6.807963
| 65>   C                      -1.063751            -8.098231            -4.243452
| 66>   O                      -2.222787            -8.313218            -5.011875
| 67>   H                      -2.807360            -8.939454            -4.540298
| 68>   H                      -0.253067            -8.872998            -4.413000
| 69>   H                      -0.578344            -7.134077            -4.487361
| 70>   H                      -1.390768            -8.202461            -3.210143
| 71> *
| 72>
| 73>                          ****END OF INPUT****
 Total Charge           Charge          ....    0
 Multiplicity           Mult            ....    1
 Number of Electrons    NEL             ....   36
Dispersion correction           -0.001804489
FINAL SINGLE POINT ENERGY      -231.464681262346
Dispersion correction           -0.000235168
FINAL SINGLE POINT ENERGY      -115.732321797407

CARTESIAN COORDINATES (ANGSTROEM)
---------------------------------
  C     -2.638835   -6.614666   -7.420561
  O     -2.992376   -6.578243   -8.791841
  H     -2.217192   -6.413573   -9.277582
  H     -1.667935   -6.968071   -7.283540
  H     -2.582873   -5.608869   -6.989358
  H     -3.339959   -7.212623   -6.807963
  C     -1.063751   -8.098231   -4.243452
  O     -2.222787   -8.313218   -5.011875
  H     -2.807360   -8.939454   -4.540298
  H     -0.253067   -8.872998   -4.413000
  H     -0.578344   -7.134077   -4.487361
  H     -1.390768   -8.202461   -3.210143

 Multiplicity           Mult            ....    1
 Number of Electrons    NEL             ....   18
 Basis Dimension        Dim             ....  172

ORBITAL ENERGIES
----------------

  NO   OCC          E(Eh)            E(eV)
   0   2.0000     -19.231149      -523.3062
   1   2.0000     -10.318712      -280.7864
   2   2.0000      -1.135517       -30.8990
   3   2.0000      -0.789812       -21.4919
   4   2.0000      -0.611246       -16.6329
   5   2.0000      -0.542823       -14.7710
   6   2.0000      -0.526989       -14.3401
   7   2.0000      -0.431319       -11.7368
   8   2.0000      -0.368823       -10.0362
   9   0.0000       0.096302         2.6205
  10   0.0000       0.120377         3.2756
  11   0.0000       0.149748         4.0749
  12   0.0000       0.180263         4.9052
  13   0.0000       0.200442         5.4543

MULLIKEN ATOMIC CHARGES
-----------------------
   0 C :    0.007541
   1 O :   -0.000195
   2 H :   -0.000013
   3 H :   -0.003953
   4 H :   -0.002193
   5 H :   -0.009923
   6 C :   -0.162304
   7 O :   -0.466175
   8 H :    0.315848
   9 H :    0.093318
  10 H :    0.122749
  11 H :    0.105300
Sum of atomic charges:    0.0000000

LOEWDIN ATOMIC CHARGES
----------------------
   0 C :   -0.020332
   1 O :   -0.000057
   2 H :   -0.000026
   3 H :   -0.004012
   4 H :   -0.000506
   5 H :   -0.014178
   6 C :   -0.393078
   7 O :   -0.052474
   8 H :    0.180318
   9 H :    0.098189
  10 H :    0.109557
  11 H :    0.096600

  Mayer bond orders larger than 0.1
B(  6-C ,  7-O ) :   0.9978 B(  6-C ,  9-H ) :   0.9663 B(  6-C , 10-H ) :   0.9733
B(  6-C , 11-H ) :   0.9875 B(  7-O ,  8-H ) :   0.8941

Dispersion correction           -0.000242693
FINAL SINGLE POINT ENERGY      -115.732191165684

DIPOLE MOMENT
-------------
                                X             Y             Z
Electronic contribution:     -1.45824      -0.08717      -1.08047
Nuclear contribution   :      1.52834      -0.21847       1.69892
                        -----------------------------------------
Total Dipole Moment    :      0.07010      -0.30563       0.61845
                        -----------------------------------------
Magnitude (a.u.)       :      0.69340
Magnitude (Debye)      :      1.76248

Rotational constants in cm-1:     4.183466     0.838340     0.800685
Rotational constants in MHz : 125417.144341 25132.792349 24003.919268

                             ****ORCA TERMINATED NORMALLY****
TOTAL RUN TIME: 0 days 0 hours 1 minutes 12 seconds 595 msec
