                         Program Version 4.1.2  - RELEASE  -
|  1> #Run DFT-D3 single point of the dimer
|  2> ! wB97X-D3 def2-TZVP TIGHTSCF CHELPG PMODEL PAL8
|  3>
|  4> %base "4-10_DFT_AB"
|  5>
|  6> %scf
|  7> MaxIter 1000
|  8> end
|  9>
| 10> * xyz 0 1
| 11>   C                      -3.440480            1.608124             -5.363870
| 12>   O                      -4.023051            1.698251             -6.686188
| 13>   H                      -4.350094            0.892071             -7.073146
| 14>   H                      -4.299878            1.217766             -4.707092
| 15>   H                      -2.598717            0.960056             -5.139841
| 16>   H                      -3.210669            2.597576             -4.898620
| 17>   C                      -7.165838            1.970965             -4.316710
| 18>   O                      -8.140504            2.659230             -3.460284
| 19>   H                      -7.664392            2.899198             -2.666859
| 20>   H                      -6.972118            0.987659             -3.975152
| 21>   H                      -7.564475            1.801484             -5.267749
| 22>   H                      -6.156702            2.463355             -4.387189
| 23> *
| 24>
| 25> #Run DFT-D3 single point of the molecule with dimer basis set
| 26> $new_job
| 27> %base "4-10_DFT_A"
| 28> ! wB97X-D3 def2-TZVP TIGHTSCF CHELPG PMODEL
| 29>
| 30> %scf
| 31> MaxIter 1000
| 32> end
| 33>
| 34> * xyz 0 1
| 35>   C                      -3.440480            1.608124             -5.363870
| 36>   O                      -4.023051            1.698251             -6.686188
| 37>   H                      -4.350094            0.892071             -7.073146
| 38>   H                      -4.299878            1.217766             -4.707092
| 39>   H                      -2.598717            0.960056             -5.139841
| 40>   H                      -3.210669            2.597576             -4.898620
| 41>   C                    : -7.165838            1.970965             -4.316710
| 42>   O                    : -8.140504            2.659230             -3.460284
| 43>   H                    : -7.664392            2.899198             -2.666859
| 44>   H                    : -6.972118            0.987659             -3.975152
| 45>   H                    : -7.564475            1.801484             -5.267749
| 46>   H                    : -6.156702            2.463355             -4.387189
| 47> *
| 48>
| 49> #Run DFT-D3 single point of the particle with dimer basis set
| 50> $new_job
| 51> %base "4-10_DFT_B"
| 52> ! wB97X-D3 def2-TZVP TIGHTSCF CHELPG PMODEL
| 53>
| 54> %scf
| 55> MaxIter 1000
| 56> end
| 57>
| 58> * xyz 0 1
| 59>   C                    : -3.440480            1.608124             -5.363870
| 60>   O                    : -4.023051            1.698251             -6.686188
| 61>   H                    : -4.350094            0.892071             -7.073146
| 62>   H                    : -4.299878            1.217766             -4.707092
| 63>   H                    : -2.598717            0.960056             -5.139841
| 64>   H                    : -3.210669            2.597576             -4.898620
| 65>   C                      -7.165838            1.970965             -4.316710
| 66>   O                      -8.140504            2.659230             -3.460284
| 67>   H                      -7.664392            2.899198             -2.666859
| 68>   H                      -6.972118            0.987659             -3.975152
| 69>   H                      -7.564475            1.801484             -5.267749
| 70>   H                      -6.156702            2.463355             -4.387189
| 71> *
| 72>
| 73>                          ****END OF INPUT****
 Total Charge           Charge          ....    0
 Multiplicity           Mult            ....    1
 Number of Electrons    NEL             ....   36
Dispersion correction           -0.001717130
FINAL SINGLE POINT ENERGY      -231.455544278081
Dispersion correction           -0.000299515
FINAL SINGLE POINT ENERGY      -115.724402244966

CARTESIAN COORDINATES (ANGSTROEM)
---------------------------------
  C     -3.440480    1.608124   -5.363870
  O     -4.023051    1.698251   -6.686188
  H     -4.350094    0.892071   -7.073146
  H     -4.299878    1.217766   -4.707092
  H     -2.598717    0.960056   -5.139841
  H     -3.210669    2.597576   -4.898620
  C     -7.165838    1.970965   -4.316710
  O     -8.140504    2.659230   -3.460284
  H     -7.664392    2.899198   -2.666859
  H     -6.972118    0.987659   -3.975152
  H     -7.564475    1.801484   -5.267749
  H     -6.156702    2.463355   -4.387189

 Multiplicity           Mult            ....    1
 Number of Electrons    NEL             ....   18
 Basis Dimension        Dim             ....  172

ORBITAL ENERGIES
----------------

  NO   OCC          E(Eh)            E(eV)
   0   2.0000     -19.232322      -523.3381
   1   2.0000     -10.312028      -280.6045
   2   2.0000      -1.122837       -30.5539
   3   2.0000      -0.804824       -21.9004
   4   2.0000      -0.602523       -16.3955
   5   2.0000      -0.533062       -14.5054
   6   2.0000      -0.525959       -14.3121
   7   2.0000      -0.444727       -12.1016
   8   2.0000      -0.376071       -10.2334
   9   0.0000       0.079536         2.1643
  10   0.0000       0.116843         3.1795
  11   0.0000       0.150116         4.0849
  12   0.0000       0.162320         4.4169
  13   0.0000       0.179646         4.8884

MULLIKEN ATOMIC CHARGES
-----------------------
   0 C :    0.002199
   1 O :    0.000064
   2 H :   -0.000029
   3 H :   -0.005420
   4 H :   -0.000257
   5 H :   -0.000277
   6 C :   -0.170300
   7 O :   -0.475999
   8 H :    0.311807
   9 H :    0.107929
  10 H :    0.124429
  11 H :    0.105854
Sum of atomic charges:   -0.0000000

LOEWDIN ATOMIC CHARGES
----------------------
   0 C :   -0.005666
   1 O :   -0.000246
   2 H :   -0.000080
   3 H :   -0.005907
   4 H :   -0.000057
   5 H :   -0.000560
   6 C :   -0.341486
   7 O :   -0.106841
   8 H :    0.162514
   9 H :    0.090695
  10 H :    0.098391
  11 H :    0.109241

  Mayer bond orders larger than 0.1
B(  6-C ,  7-O ) :   0.9999 B(  6-C ,  9-H ) :   0.9741 B(  6-C , 10-H ) :   0.9737
B(  6-C , 11-H ) :   0.9771 B(  7-O ,  8-H ) :   0.9042

Dispersion correction           -0.000265872
FINAL SINGLE POINT ENERGY      -115.730481453657

DIPOLE MOMENT
-------------
                                X             Y             Z
Electronic contribution:     -1.37249       0.89757       0.93240
Nuclear contribution   :      2.06963      -1.06502      -0.80343
                        -----------------------------------------
Total Dipole Moment    :      0.69714      -0.16746       0.12897
                        -----------------------------------------
Magnitude (a.u.)       :      0.72848
Magnitude (Debye)      :      1.85165

Rotational constants in cm-1:     4.469294     0.782331     0.750386
Rotational constants in MHz : 133986.060619 23453.707872 22496.019761

                             ****ORCA TERMINATED NORMALLY****
TOTAL RUN TIME: 0 days 0 hours 1 minutes 33 seconds 413 msec
