                         Program Version 4.1.2  - RELEASE  -
|  1> #Run DFT-D3 single point of the dimer
|  2> ! wB97X-D3 def2-TZVP TIGHTSCF CHELPG PMODEL PAL8
|  3>
|  4> %base "2-3_DFT_AB"
|  5>
|  6> %scf
|  7> MaxIter 1000
|  8> end
|  9>
| 10> * xyz 0 1
| 11>   C                      8.949076             -5.978823            1.374421
| 12>   O                      8.061541             -5.195316            2.119433
| 13>   H                      7.149420             -5.531842            2.087189
| 14>   H                      8.545516             -6.842409            0.887766
| 15>   H                      9.373425             -5.345801            0.537664
| 16>   H                      9.797121             -6.359743            1.900939
| 17>   C                      7.996633             -1.735573            4.527237
| 18>   O                      7.263892             -2.949222            4.423711
| 19>   H                      7.955165             -3.509300            4.078103
| 20>   H                      8.908244             -1.747143            3.903842
| 21>   H                      7.329554             -0.891371            4.141060
| 22>   H                      8.341801             -1.503690            5.581200
| 23> *
| 24>
| 25> #Run DFT-D3 single point of the molecule with dimer basis set
| 26> $new_job
| 27> %base "2-3_DFT_A"
| 28> ! wB97X-D3 def2-TZVP TIGHTSCF CHELPG PMODEL
| 29>
| 30> %scf
| 31> MaxIter 1000
| 32> end
| 33>
| 34> * xyz 0 1
| 35>   C                      8.949076             -5.978823            1.374421
| 36>   O                      8.061541             -5.195316            2.119433
| 37>   H                      7.149420             -5.531842            2.087189
| 38>   H                      8.545516             -6.842409            0.887766
| 39>   H                      9.373425             -5.345801            0.537664
| 40>   H                      9.797121             -6.359743            1.900939
| 41>   C                    : 7.996633             -1.735573            4.527237
| 42>   O                    : 7.263892             -2.949222            4.423711
| 43>   H                    : 7.955165             -3.509300            4.078103
| 44>   H                    : 8.908244             -1.747143            3.903842
| 45>   H                    : 7.329554             -0.891371            4.141060
| 46>   H                    : 8.341801             -1.503690            5.581200
| 47> *
| 48>
| 49> #Run DFT-D3 single point of the particle with dimer basis set
| 50> $new_job
| 51> %base "2-3_DFT_B"
| 52> ! wB97X-D3 def2-TZVP TIGHTSCF CHELPG PMODEL
| 53>
| 54> %scf
| 55> MaxIter 1000
| 56> end
| 57>
| 58> * xyz 0 1
| 59>   C                    : 8.949076             -5.978823            1.374421
| 60>   O                    : 8.061541             -5.195316            2.119433
| 61>   H                    : 7.149420             -5.531842            2.087189
| 62>   H                    : 8.545516             -6.842409            0.887766
| 63>   H                    : 9.373425             -5.345801            0.537664
| 64>   H                    : 9.797121             -6.359743            1.900939
| 65>   C                      7.996633             -1.735573            4.527237
| 66>   O                      7.263892             -2.949222            4.423711
| 67>   H                      7.955165             -3.509300            4.078103
| 68>   H                      8.908244             -1.747143            3.903842
| 69>   H                      7.329554             -0.891371            4.141060
| 70>   H                      8.341801             -1.503690            5.581200
| 71> *
| 72>
| 73>                          ****END OF INPUT****
 Total Charge           Charge          ....    0
 Multiplicity           Mult            ....    1
 Number of Electrons    NEL             ....   36
Dispersion correction           -0.001277940
FINAL SINGLE POINT ENERGY      -231.467439607302
Dispersion correction           -0.000265437
FINAL SINGLE POINT ENERGY      -115.731616238676

CARTESIAN COORDINATES (ANGSTROEM)
---------------------------------
  C      8.949076   -5.978823    1.374421
  O      8.061541   -5.195316    2.119433
  H      7.149420   -5.531842    2.087189
  H      8.545516   -6.842409    0.887766
  H      9.373425   -5.345801    0.537664
  H      9.797121   -6.359743    1.900939
  C      7.996633   -1.735573    4.527237
  O      7.263892   -2.949222    4.423711
  H      7.955165   -3.509300    4.078103
  H      8.908244   -1.747143    3.903842
  H      7.329554   -0.891371    4.141060
  H      8.341801   -1.503690    5.581200

 Multiplicity           Mult            ....    1
 Number of Electrons    NEL             ....   18
 Basis Dimension        Dim             ....  172

ORBITAL ENERGIES
----------------

  NO   OCC          E(Eh)            E(eV)
   0   2.0000     -19.235120      -523.4142
   1   2.0000     -10.324951      -280.9562
   2   2.0000      -1.143771       -31.1236
   3   2.0000      -0.784716       -21.3532
   4   2.0000      -0.613294       -16.6886
   5   2.0000      -0.536539       -14.6000
   6   2.0000      -0.519866       -14.1463
   7   2.0000      -0.443237       -12.0611
   8   2.0000      -0.375548       -10.2192
   9   0.0000       0.074898         2.0381
  10   0.0000       0.117817         3.2060
  11   0.0000       0.147518         4.0142
  12   0.0000       0.175621         4.7789
  13   0.0000       0.186678         5.0798

MULLIKEN ATOMIC CHARGES
-----------------------
   0 C :   -0.000533
   1 O :   -0.001414
   2 H :   -0.000662
   3 H :    0.000018
   4 H :    0.000020
   5 H :    0.000020
   6 C :   -0.180475
   7 O :   -0.450775
   8 H :    0.314128
   9 H :    0.103793
  10 H :    0.114734
  11 H :    0.101147
Sum of atomic charges:    0.0000000

LOEWDIN ATOMIC CHARGES
----------------------
   0 C :   -0.000389
   1 O :   -0.004265
   2 H :   -0.000983
   3 H :   -0.000010
   4 H :   -0.000007
   5 H :   -0.000014
   6 C :   -0.398147
   7 O :   -0.075040
   8 H :    0.169727
   9 H :    0.095916
  10 H :    0.112286
  11 H :    0.100926

  Mayer bond orders larger than 0.1
B(  6-C ,  7-O ) :   1.0099 B(  6-C ,  9-H ) :   0.9826 B(  6-C , 10-H ) :   0.9738
B(  6-C , 11-H ) :   0.9680 B(  7-O ,  8-H ) :   0.9054

Dispersion correction           -0.000247590
FINAL SINGLE POINT ENERGY      -115.730905401570

DIPOLE MOMENT
-------------
                                X             Y             Z
Electronic contribution:     -1.09943      -1.58272      -0.06064
Nuclear contribution   :      1.81693       1.68381      -0.13853
                        -----------------------------------------
Total Dipole Moment    :      0.71750       0.10109      -0.19917
                        -----------------------------------------
Magnitude (a.u.)       :      0.75146
Magnitude (Debye)      :      1.91005

Rotational constants in cm-1:     4.043130     0.825994     0.796764
Rotational constants in MHz : 121210.000826 24762.678022 23886.374246

                             ****ORCA TERMINATED NORMALLY****
TOTAL RUN TIME: 0 days 0 hours 5 minutes 30 seconds 978 msec
