                         Program Version 4.1.2  - RELEASE  -
|  1> #Run DFT-D3 single point of the dimer
|  2> ! wB97X-D3 def2-TZVP TIGHTSCF CHELPG PMODEL PAL8
|  3>
|  4> %base "11-59_DFT_AB"
|  5>
|  6> %scf
|  7> MaxIter 1000
|  8> end
|  9>
| 10> * xyz 0 1
| 11>   C                      -2.287004            -7.105774            -7.763036
| 12>   O                      -0.949285            -7.170664            -8.203545
| 13>   H                      -0.939735            -7.506460            -9.050222
| 14>   H                      -2.333886            -6.430946            -6.937260
| 15>   H                      -2.922818            -6.617067            -8.546304
| 16>   H                      -2.776979            -8.069040            -7.408969
| 17>   C                      -0.783540            -2.851579            -5.279803
| 18>   O                      0.165316             -3.872010            -5.528957
| 19>   H                      -0.106058            -4.265933            -6.371296
| 20>   H                      -1.847360            -3.174461            -5.016422
| 21>   H                      -0.512712            -2.241596            -4.457779
| 22>   H                      -0.964531            -2.237275            -6.136226
| 23> *
| 24>
| 25> #Run DFT-D3 single point of the molecule with dimer basis set
| 26> $new_job
| 27> %base "11-59_DFT_A"
| 28> ! wB97X-D3 def2-TZVP TIGHTSCF CHELPG PMODEL
| 29>
| 30> %scf
| 31> MaxIter 1000
| 32> end
| 33>
| 34> * xyz 0 1
| 35>   C                      -2.287004            -7.105774            -7.763036
| 36>   O                      -0.949285            -7.170664            -8.203545
| 37>   H                      -0.939735            -7.506460            -9.050222
| 38>   H                      -2.333886            -6.430946            -6.937260
| 39>   H                      -2.922818            -6.617067            -8.546304
| 40>   H                      -2.776979            -8.069040            -7.408969
| 41>   C                    : -0.783540            -2.851579            -5.279803
| 42>   O                    : 0.165316             -3.872010            -5.528957
| 43>   H                    : -0.106058            -4.265933            -6.371296
| 44>   H                    : -1.847360            -3.174461            -5.016422
| 45>   H                    : -0.512712            -2.241596            -4.457779
| 46>   H                    : -0.964531            -2.237275            -6.136226
| 47> *
| 48>
| 49> #Run DFT-D3 single point of the particle with dimer basis set
| 50> $new_job
| 51> %base "11-59_DFT_B"
| 52> ! wB97X-D3 def2-TZVP TIGHTSCF CHELPG PMODEL
| 53>
| 54> %scf
| 55> MaxIter 1000
| 56> end
| 57>
| 58> * xyz 0 1
| 59>   C                    : -2.287004            -7.105774            -7.763036
| 60>   O                    : -0.949285            -7.170664            -8.203545
| 61>   H                    : -0.939735            -7.506460            -9.050222
| 62>   H                    : -2.333886            -6.430946            -6.937260
| 63>   H                    : -2.922818            -6.617067            -8.546304
| 64>   H                    : -2.776979            -8.069040            -7.408969
| 65>   C                      -0.783540            -2.851579            -5.279803
| 66>   O                      0.165316             -3.872010            -5.528957
| 67>   H                      -0.106058            -4.265933            -6.371296
| 68>   H                      -1.847360            -3.174461            -5.016422
| 69>   H                      -0.512712            -2.241596            -4.457779
| 70>   H                      -0.964531            -2.237275            -6.136226
| 71> *
| 72>
| 73>                          ****END OF INPUT****
 Total Charge           Charge          ....    0
 Multiplicity           Mult            ....    1
 Number of Electrons    NEL             ....   36
Dispersion correction           -0.001062107
FINAL SINGLE POINT ENERGY      -231.465233847805
Dispersion correction           -0.000256816
FINAL SINGLE POINT ENERGY      -115.731790122092

CARTESIAN COORDINATES (ANGSTROEM)
---------------------------------
  C     -2.287004   -7.105774   -7.763036
  O     -0.949285   -7.170664   -8.203545
  H     -0.939735   -7.506460   -9.050222
  H     -2.333886   -6.430946   -6.937260
  H     -2.922818   -6.617067   -8.546304
  H     -2.776979   -8.069040   -7.408969
  C     -0.783540   -2.851579   -5.279803
  O      0.165316   -3.872010   -5.528957
  H     -0.106058   -4.265933   -6.371296
  H     -1.847360   -3.174461   -5.016422
  H     -0.512712   -2.241596   -4.457779
  H     -0.964531   -2.237275   -6.136226

 Multiplicity           Mult            ....    1
 Number of Electrons    NEL             ....   18
 Basis Dimension        Dim             ....  172

ORBITAL ENERGIES
----------------

  NO   OCC          E(Eh)            E(eV)
   0   2.0000     -19.237258      -523.4724
   1   2.0000     -10.312256      -280.6108
   2   2.0000      -1.138597       -30.9828
   3   2.0000      -0.798227       -21.7208
   4   2.0000      -0.615708       -16.7543
   5   2.0000      -0.537638       -14.6299
   6   2.0000      -0.524539       -14.2734
   7   2.0000      -0.444549       -12.0968
   8   2.0000      -0.372960       -10.1487
   9   0.0000       0.074861         2.0371
  10   0.0000       0.119107         3.2411
  11   0.0000       0.145763         3.9664
  12   0.0000       0.162958         4.4343
  13   0.0000       0.194029         5.2798

MULLIKEN ATOMIC CHARGES
-----------------------
   0 C :    0.000508
   1 O :    0.000028
   2 H :    0.000011
   3 H :   -0.001673
   4 H :    0.000008
   5 H :   -0.000045
   6 C :   -0.178984
   7 O :   -0.462191
   8 H :    0.317483
   9 H :    0.087328
  10 H :    0.127512
  11 H :    0.110016
Sum of atomic charges:    0.0000000

LOEWDIN ATOMIC CHARGES
----------------------
   0 C :   -0.000514
   1 O :   -0.000113
   2 H :   -0.000006
   3 H :   -0.000673
   4 H :   -0.000003
   5 H :   -0.000008
   6 C :   -0.392177
   7 O :   -0.073824
   8 H :    0.177188
   9 H :    0.099423
  10 H :    0.100700
  11 H :    0.090006

  Mayer bond orders larger than 0.1
B(  6-C ,  7-O ) :   1.0084 B(  6-C ,  9-H ) :   0.9679 B(  6-C , 10-H ) :   0.9765
B(  6-C , 11-H ) :   0.9794 B(  7-O ,  8-H ) :   0.8988

Dispersion correction           -0.000253052
FINAL SINGLE POINT ENERGY      -115.731973756589

DIPOLE MOMENT
-------------
                                X             Y             Z
Electronic contribution:      1.49817      -1.31189      -0.19386
Nuclear contribution   :     -2.01395       1.48406      -0.24195
                        -----------------------------------------
Total Dipole Moment    :     -0.51578       0.17217      -0.43581
                        -----------------------------------------
Magnitude (a.u.)       :      0.69685
Magnitude (Debye)      :      1.77126

Rotational constants in cm-1:     4.441617     0.822569     0.788500
Rotational constants in MHz : 133156.321451 24659.997581 23638.648422

                             ****ORCA TERMINATED NORMALLY****
TOTAL RUN TIME: 0 days 0 hours 1 minutes 10 seconds 487 msec
