                         Program Version 4.1.2  - RELEASE  -
|  1> #Run DFT-D3 single point of the dimer
|  2> ! wB97X-D3 def2-TZVP TIGHTSCF CHELPG PMODEL PAL8
|  3>
|  4> %base "14-53_DFT_AB"
|  5>
|  6> %scf
|  7> MaxIter 1000
|  8> end
|  9>
| 10> * xyz 0 1
| 11>   C                      -3.823675            4.289136             -8.766144
| 12>   O                      -4.377185            5.267155             -9.559197
| 13>   H                      -4.576584            6.000657             -8.961619
| 14>   H                      -2.831440            4.544331             -8.466993
| 15>   H                      -4.245802            4.234392             -7.782589
| 16>   H                      -3.906820            3.308003             -9.284825
| 17>   C                      -0.625806            5.810472             -9.874929
| 18>   O                      0.376086             6.112436             -10.788742
| 19>   H                      0.915324             6.570061             -10.169449
| 20>   H                      -0.324112            5.804178             -8.817376
| 21>   H                      -1.405672            6.594113             -9.918091
| 22>   H                      -1.220156            4.938651             -10.091798
| 23> *
| 24>
| 25> #Run DFT-D3 single point of the molecule with dimer basis set
| 26> $new_job
| 27> %base "14-53_DFT_A"
| 28> ! wB97X-D3 def2-TZVP TIGHTSCF CHELPG PMODEL
| 29>
| 30> %scf
| 31> MaxIter 1000
| 32> end
| 33>
| 34> * xyz 0 1
| 35>   C                      -3.823675            4.289136             -8.766144
| 36>   O                      -4.377185            5.267155             -9.559197
| 37>   H                      -4.576584            6.000657             -8.961619
| 38>   H                      -2.831440            4.544331             -8.466993
| 39>   H                      -4.245802            4.234392             -7.782589
| 40>   H                      -3.906820            3.308003             -9.284825
| 41>   C                    : -0.625806            5.810472             -9.874929
| 42>   O                    : 0.376086             6.112436             -10.788742
| 43>   H                    : 0.915324             6.570061             -10.169449
| 44>   H                    : -0.324112            5.804178             -8.817376
| 45>   H                    : -1.405672            6.594113             -9.918091
| 46>   H                    : -1.220156            4.938651             -10.091798
| 47> *
| 48>
| 49> #Run DFT-D3 single point of the particle with dimer basis set
| 50> $new_job
| 51> %base "14-53_DFT_B"
| 52> ! wB97X-D3 def2-TZVP TIGHTSCF CHELPG PMODEL
| 53>
| 54> %scf
| 55> MaxIter 1000
| 56> end
| 57>
| 58> * xyz 0 1
| 59>   C                    : -3.823675            4.289136             -8.766144
| 60>   O                    : -4.377185            5.267155             -9.559197
| 61>   H                    : -4.576584            6.000657             -8.961619
| 62>   H                    : -2.831440            4.544331             -8.466993
| 63>   H                    : -4.245802            4.234392             -7.782589
| 64>   H                    : -3.906820            3.308003             -9.284825
| 65>   C                      -0.625806            5.810472             -9.874929
| 66>   O                      0.376086             6.112436             -10.788742
| 67>   H                      0.915324             6.570061             -10.169449
| 68>   H                      -0.324112            5.804178             -8.817376
| 69>   H                      -1.405672            6.594113             -9.918091
| 70>   H                      -1.220156            4.938651             -10.091798
| 71> *
| 72>
| 73>                          ****END OF INPUT****
 Total Charge           Charge          ....    0
 Multiplicity           Mult            ....    1
 Number of Electrons    NEL             ....   36
Dispersion correction           -0.001707961
FINAL SINGLE POINT ENERGY      -231.456551592924
Dispersion correction           -0.000209828
FINAL SINGLE POINT ENERGY      -115.730275792723

CARTESIAN COORDINATES (ANGSTROEM)
---------------------------------
  C     -3.823675    4.289136   -8.766144
  O     -4.377185    5.267155   -9.559197
  H     -4.576584    6.000657   -8.961619
  H     -2.831440    4.544331   -8.466993
  H     -4.245802    4.234392   -7.782589
  H     -3.906820    3.308003   -9.284825
  C     -0.625806    5.810472   -9.874929
  O      0.376086    6.112436  -10.788742
  H      0.915324    6.570061  -10.169449
  H     -0.324112    5.804178   -8.817376
  H     -1.405672    6.594113   -9.918091
  H     -1.220156    4.938651  -10.091798

 Multiplicity           Mult            ....    1
 Number of Electrons    NEL             ....   18
 Basis Dimension        Dim             ....  172

ORBITAL ENERGIES
----------------

  NO   OCC          E(Eh)            E(eV)
   0   2.0000     -19.235296      -523.4190
   1   2.0000     -10.312406      -280.6148
   2   2.0000      -1.160405       -31.5762
   3   2.0000      -0.793233       -21.5850
   4   2.0000      -0.621701       -16.9173
   5   2.0000      -0.537347       -14.6219
   6   2.0000      -0.535372       -14.5682
   7   2.0000      -0.452016       -12.3000
   8   2.0000      -0.369844       -10.0640
   9   0.0000       0.082277         2.2389
  10   0.0000       0.115655         3.1471
  11   0.0000       0.158167         4.3040
  12   0.0000       0.164520         4.4768
  13   0.0000       0.177280         4.8240

MULLIKEN ATOMIC CHARGES
-----------------------
   0 C :   -0.000105
   1 O :    0.000115
   2 H :   -0.000009
   3 H :   -0.000619
   4 H :   -0.000090
   5 H :   -0.000167
   6 C :   -0.198733
   7 O :   -0.437942
   8 H :    0.315631
   9 H :    0.104530
  10 H :    0.096887
  11 H :    0.120502
Sum of atomic charges:   -0.0000000

LOEWDIN ATOMIC CHARGES
----------------------
   0 C :   -0.005549
   1 O :   -0.000593
   2 H :   -0.000349
   3 H :   -0.004191
   4 H :   -0.000030
   5 H :   -0.000198
   6 C :   -0.417785
   7 O :   -0.041316
   8 H :    0.168998
   9 H :    0.098556
  10 H :    0.097611
  11 H :    0.104846

  Mayer bond orders larger than 0.1
B(  6-C ,  7-O ) :   1.0134 B(  6-C ,  9-H ) :   0.9808 B(  6-C , 10-H ) :   0.9777
B(  6-C , 11-H ) :   0.9753 B(  7-O ,  8-H ) :   0.9061

Dispersion correction           -0.000213401
FINAL SINGLE POINT ENERGY      -115.725565228674

DIPOLE MOMENT
-------------
                                X             Y             Z
Electronic contribution:      1.45865       0.18694      -1.40705
Nuclear contribution   :     -1.48581      -0.01841       2.11780
                        -----------------------------------------
Total Dipole Moment    :     -0.02716       0.16853       0.71076
                        -----------------------------------------
Magnitude (a.u.)       :      0.73097
Magnitude (Debye)      :      1.85797

Rotational constants in cm-1:     4.380223     0.865590     0.822868
Rotational constants in MHz : 131315.780116 25949.725277 24668.974876

                             ****ORCA TERMINATED NORMALLY****
TOTAL RUN TIME: 0 days 0 hours 1 minutes 1 seconds 456 msec
