                         Program Version 4.1.2  - RELEASE  -
|  1> #Run DFT-D3 single point of the dimer
|  2> ! wB97X-D3 def2-TZVP TIGHTSCF CHELPG PMODEL PAL8
|  3>
|  4> %base "5-26_DFT_AB"
|  5>
|  6> %scf
|  7> MaxIter 1000
|  8> end
|  9>
| 10> * xyz 0 1
| 11>   C                      2.739132             -3.942480            -1.008213
| 12>   O                      1.753076             -3.898102            -0.067553
| 13>   H                      2.322324             -4.076974            0.640020
| 14>   H                      3.466281             -4.735064            -0.636827
| 15>   H                      2.402265             -4.144417            -2.020121
| 16>   H                      3.256188             -3.012980            -0.955926
| 17>   C                      6.668036             -5.455190            -1.030907
| 18>   O                      6.837075             -4.507155            -0.019168
| 19>   H                      7.422544             -4.843241            0.644759
| 20>   H                      7.637286             -5.706751            -1.547188
| 21>   H                      6.155965             -6.319616            -0.667322
| 22>   H                      6.026018             -5.035849            -1.862106
| 23> *
| 24>
| 25> #Run DFT-D3 single point of the molecule with dimer basis set
| 26> $new_job
| 27> %base "5-26_DFT_A"
| 28> ! wB97X-D3 def2-TZVP TIGHTSCF CHELPG PMODEL
| 29>
| 30> %scf
| 31> MaxIter 1000
| 32> end
| 33>
| 34> * xyz 0 1
| 35>   C                      2.739132             -3.942480            -1.008213
| 36>   O                      1.753076             -3.898102            -0.067553
| 37>   H                      2.322324             -4.076974            0.640020
| 38>   H                      3.466281             -4.735064            -0.636827
| 39>   H                      2.402265             -4.144417            -2.020121
| 40>   H                      3.256188             -3.012980            -0.955926
| 41>   C                    : 6.668036             -5.455190            -1.030907
| 42>   O                    : 6.837075             -4.507155            -0.019168
| 43>   H                    : 7.422544             -4.843241            0.644759
| 44>   H                    : 7.637286             -5.706751            -1.547188
| 45>   H                    : 6.155965             -6.319616            -0.667322
| 46>   H                    : 6.026018             -5.035849            -1.862106
| 47> *
| 48>
| 49> #Run DFT-D3 single point of the particle with dimer basis set
| 50> $new_job
| 51> %base "5-26_DFT_B"
| 52> ! wB97X-D3 def2-TZVP TIGHTSCF CHELPG PMODEL
| 53>
| 54> %scf
| 55> MaxIter 1000
| 56> end
| 57>
| 58> * xyz 0 1
| 59>   C                    : 2.739132             -3.942480            -1.008213
| 60>   O                    : 1.753076             -3.898102            -0.067553
| 61>   H                    : 2.322324             -4.076974            0.640020
| 62>   H                    : 3.466281             -4.735064            -0.636827
| 63>   H                    : 2.402265             -4.144417            -2.020121
| 64>   H                    : 3.256188             -3.012980            -0.955926
| 65>   C                      6.668036             -5.455190            -1.030907
| 66>   O                      6.837075             -4.507155            -0.019168
| 67>   H                      7.422544             -4.843241            0.644759
| 68>   H                      7.637286             -5.706751            -1.547188
| 69>   H                      6.155965             -6.319616            -0.667322
| 70>   H                      6.026018             -5.035849            -1.862106
| 71> *
| 72>
| 73>                          ****END OF INPUT****
 Total Charge           Charge          ....    0
 Multiplicity           Mult            ....    1
 Number of Electrons    NEL             ....   36
Dispersion correction           -0.001295364
FINAL SINGLE POINT ENERGY      -231.455984687162
Dispersion correction           -0.000170215
FINAL SINGLE POINT ENERGY      -115.719881981332

CARTESIAN COORDINATES (ANGSTROEM)
---------------------------------
  C      2.739132   -3.942480   -1.008213
  O      1.753076   -3.898102   -0.067553
  H      2.322324   -4.076974    0.640020
  H      3.466281   -4.735064   -0.636827
  H      2.402265   -4.144417   -2.020121
  H      3.256188   -3.012980   -0.955926
  C      6.668036   -5.455190   -1.030907
  O      6.837075   -4.507155   -0.019168
  H      7.422544   -4.843241    0.644759
  H      7.637286   -5.706751   -1.547188
  H      6.155965   -6.319616   -0.667322
  H      6.026018   -5.035849   -1.862106

 Multiplicity           Mult            ....    1
 Number of Electrons    NEL             ....   18
 Basis Dimension        Dim             ....  172

ORBITAL ENERGIES
----------------

  NO   OCC          E(Eh)            E(eV)
   0   2.0000     -19.228659      -523.2384
   1   2.0000     -10.315749      -280.7058
   2   2.0000      -1.143115       -31.1057
   3   2.0000      -0.794044       -21.6070
   4   2.0000      -0.613311       -16.6890
   5   2.0000      -0.549124       -14.9424
   6   2.0000      -0.525450       -14.2982
   7   2.0000      -0.424120       -11.5409
   8   2.0000      -0.375306       -10.2126
   9   0.0000       0.091258         2.4833
  10   0.0000       0.122754         3.3403
  11   0.0000       0.150822         4.1041
  12   0.0000       0.172636         4.6977
  13   0.0000       0.196370         5.3435

MULLIKEN ATOMIC CHARGES
-----------------------
   0 C :   -0.000808
   1 O :    0.000042
   2 H :   -0.000071
   3 H :    0.001142
   4 H :    0.000057
   5 H :   -0.000176
   6 C :   -0.165675
   7 O :   -0.472001
   8 H :    0.313756
   9 H :    0.101682
  10 H :    0.106140
  11 H :    0.115914
Sum of atomic charges:   -0.0000000

LOEWDIN ATOMIC CHARGES
----------------------
   0 C :   -0.001421
   1 O :   -0.000014
   2 H :   -0.000031
   3 H :   -0.001134
   4 H :   -0.000051
   5 H :   -0.000136
   6 C :   -0.403694
   7 O :   -0.058887
   8 H :    0.161188
   9 H :    0.099461
  10 H :    0.088486
  11 H :    0.116233

  Mayer bond orders larger than 0.1
B(  6-C ,  7-O ) :   0.9968 B(  6-C ,  9-H ) :   0.9745 B(  6-C , 10-H ) :   0.9784
B(  6-C , 11-H ) :   0.9724 B(  7-O ,  8-H ) :   0.8993

Dispersion correction           -0.000243364
FINAL SINGLE POINT ENERGY      -115.734573543685

DIPOLE MOMENT
-------------
                                X             Y             Z
Electronic contribution:      0.14907       1.25476       1.35751
Nuclear contribution   :      0.15144      -1.83881      -1.32127
                        -----------------------------------------
Total Dipole Moment    :      0.30051      -0.58405       0.03625
                        -----------------------------------------
Magnitude (a.u.)       :      0.65783
Magnitude (Debye)      :      1.67206

Rotational constants in cm-1:     4.280622     0.837569     0.814355
Rotational constants in MHz : 128329.829200 25109.677417 24413.742674

                             ****ORCA TERMINATED NORMALLY****
TOTAL RUN TIME: 0 days 0 hours 0 minutes 58 seconds 141 msec
