                         Program Version 4.1.2  - RELEASE  -
|  1> #Run DFT-D3 single point of the dimer
|  2> ! wB97X-D3 def2-TZVP TIGHTSCF CHELPG PMODEL PAL8
|  3>
|  4> %base "12-178_DFT_AB"
|  5>
|  6> %scf
|  7> MaxIter 1000
|  8> end
|  9>
| 10> * xyz 0 1
| 11>   C                      9.145848             8.446016             -8.697096
| 12>   O                      9.313922             7.626189             -9.795681
| 13>   H                      10.268414            7.654718             -9.918647
| 14>   H                      8.206314             8.395980             -8.233170
| 15>   H                      9.898711             8.080547             -7.931521
| 16>   H                      9.374946             9.509119             -8.878427
| 17>   C                      7.767444             4.566818             -9.133607
| 18>   O                      7.553531             5.905557             -8.779030
| 19>   H                      8.128435             6.432187             -9.348183
| 20>   H                      7.214960             4.367022             -10.062271
| 21>   H                      8.836594             4.365661             -9.249625
| 22>   H                      7.318369             3.888565             -8.383946
| 23> *
| 24>
| 25> #Run DFT-D3 single point of the molecule with dimer basis set
| 26> $new_job
| 27> %base "12-178_DFT_A"
| 28> ! wB97X-D3 def2-TZVP TIGHTSCF CHELPG PMODEL
| 29>
| 30> %scf
| 31> MaxIter 1000
| 32> end
| 33>
| 34> * xyz 0 1
| 35>   C                      9.145848             8.446016             -8.697096
| 36>   O                      9.313922             7.626189             -9.795681
| 37>   H                      10.268414            7.654718             -9.918647
| 38>   H                      8.206314             8.395980             -8.233170
| 39>   H                      9.898711             8.080547             -7.931521
| 40>   H                      9.374946             9.509119             -8.878427
| 41>   C                    : 7.767444             4.566818             -9.133607
| 42>   O                    : 7.553531             5.905557             -8.779030
| 43>   H                    : 8.128435             6.432187             -9.348183
| 44>   H                    : 7.214960             4.367022             -10.062271
| 45>   H                    : 8.836594             4.365661             -9.249625
| 46>   H                    : 7.318369             3.888565             -8.383946
| 47> *
| 48>
| 49> #Run DFT-D3 single point of the particle with dimer basis set
| 50> $new_job
| 51> %base "12-178_DFT_B"
| 52> ! wB97X-D3 def2-TZVP TIGHTSCF CHELPG PMODEL
| 53>
| 54> %scf
| 55> MaxIter 1000
| 56> end
| 57>
| 58> * xyz 0 1
| 59>   C                    : 9.145848             8.446016             -8.697096
| 60>   O                    : 9.313922             7.626189             -9.795681
| 61>   H                    : 10.268414            7.654718             -9.918647
| 62>   H                    : 8.206314             8.395980             -8.233170
| 63>   H                    : 9.898711             8.080547             -7.931521
| 64>   H                    : 9.374946             9.509119             -8.878427
| 65>   C                      7.767444             4.566818             -9.133607
| 66>   O                      7.553531             5.905557             -8.779030
| 67>   H                      8.128435             6.432187             -9.348183
| 68>   H                      7.214960             4.367022             -10.062271
| 69>   H                      8.836594             4.365661             -9.249625
| 70>   H                      7.318369             3.888565             -8.383946
| 71> *
| 72>
| 73>                          ****END OF INPUT****
 Total Charge           Charge          ....    0
 Multiplicity           Mult            ....    1
 Number of Electrons    NEL             ....   36
Dispersion correction           -0.001825602
FINAL SINGLE POINT ENERGY      -231.472580466867
Dispersion correction           -0.000208073
FINAL SINGLE POINT ENERGY      -115.730351658791

CARTESIAN COORDINATES (ANGSTROEM)
---------------------------------
  C      9.145848    8.446016   -8.697096
  O      9.313922    7.626189   -9.795681
  H     10.268414    7.654718   -9.918647
  H      8.206314    8.395980   -8.233170
  H      9.898711    8.080547   -7.931521
  H      9.374946    9.509119   -8.878427
  C      7.767444    4.566818   -9.133607
  O      7.553531    5.905557   -8.779030
  H      8.128435    6.432187   -9.348183
  H      7.214960    4.367022  -10.062271
  H      8.836594    4.365661   -9.249625
  H      7.318369    3.888565   -8.383946

 Multiplicity           Mult            ....    1
 Number of Electrons    NEL             ....   18
 Basis Dimension        Dim             ....  172

ORBITAL ENERGIES
----------------

  NO   OCC          E(Eh)            E(eV)
   0   2.0000     -19.230579      -523.2907
   1   2.0000     -10.313776      -280.6521
   2   2.0000      -1.140643       -31.0385
   3   2.0000      -0.791644       -21.5417
   4   2.0000      -0.610698       -16.6179
   5   2.0000      -0.546563       -14.8727
   6   2.0000      -0.529461       -14.4074
   7   2.0000      -0.433667       -11.8007
   8   2.0000      -0.371604       -10.1119
   9   0.0000       0.075610         2.0575
  10   0.0000       0.133064         3.6208
  11   0.0000       0.162204         4.4138
  12   0.0000       0.171421         4.6646
  13   0.0000       0.191554         5.2124

MULLIKEN ATOMIC CHARGES
-----------------------
   0 C :   -0.008114
   1 O :   -0.004737
   2 H :   -0.000176
   3 H :   -0.001855
   4 H :    0.000737
   5 H :   -0.000385
   6 C :   -0.168279
   7 O :   -0.457734
   8 H :    0.318551
   9 H :    0.101535
  10 H :    0.102160
  11 H :    0.118297
Sum of atomic charges:   -0.0000000

LOEWDIN ATOMIC CHARGES
----------------------
   0 C :   -0.020964
   1 O :   -0.031395
   2 H :   -0.001360
   3 H :   -0.005245
   4 H :   -0.001007
   5 H :   -0.000278
   6 C :   -0.394802
   7 O :   -0.043813
   8 H :    0.196552
   9 H :    0.096036
  10 H :    0.095431
  11 H :    0.110845

  Mayer bond orders larger than 0.1
B(  6-C ,  7-O ) :   0.9979 B(  6-C ,  9-H ) :   0.9825 B(  6-C , 10-H ) :   0.9760
B(  6-C , 11-H ) :   0.9720 B(  7-O ,  8-H ) :   0.8953

Dispersion correction           -0.000222928
FINAL SINGLE POINT ENERGY      -115.736169985661

DIPOLE MOMENT
-------------
                                X             Y             Z
Electronic contribution:     -0.31889       1.64461       0.59655
Nuclear contribution   :      0.75053      -1.85420      -1.07947
                        -----------------------------------------
Total Dipole Moment    :      0.43164      -0.20959      -0.48292
                        -----------------------------------------
Magnitude (a.u.)       :      0.68077
Magnitude (Debye)      :      1.73038

Rotational constants in cm-1:     4.195581     0.849365     0.816654
Rotational constants in MHz : 125780.359812 25463.316104 24482.675049

                             ****ORCA TERMINATED NORMALLY****
TOTAL RUN TIME: 0 days 0 hours 1 minutes 16 seconds 334 msec
