                         Program Version 4.1.2  - RELEASE  -
|  1> #Run DFT-D3 single point of the dimer
|  2> ! wB97X-D3 def2-TZVP TIGHTSCF CHELPG PMODEL PAL8
|  3>
|  4> %base "18-180_DFT_AB"
|  5>
|  6> %scf
|  7> MaxIter 1000
|  8> end
|  9>
| 10> * xyz 0 1
| 11>   C                      -8.402914            10.317760            -3.100423
| 12>   O                      -9.775966            10.142569            -3.347010
| 13>   H                      -9.913859            9.784764             -4.223316
| 14>   H                      -8.134308            11.391179            -3.022776
| 15>   H                      -8.040535            9.777013             -2.204888
| 16>   H                      -7.769791            10.002790            -3.861557
| 17>   C                      -11.337980           8.143911             -6.291667
| 18>   O                      -10.056986           8.554640             -5.865743
| 19>   H                      -9.458282            8.514964             -6.656349
| 20>   H                      -12.131608           8.879031             -6.239528
| 21>   H                      -11.229293           7.865846             -7.360883
| 22>   H                      -11.542811           7.283595             -5.636670
| 23> *
| 24>
| 25> #Run DFT-D3 single point of the molecule with dimer basis set
| 26> $new_job
| 27> %base "18-180_DFT_A"
| 28> ! wB97X-D3 def2-TZVP TIGHTSCF CHELPG PMODEL
| 29>
| 30> %scf
| 31> MaxIter 1000
| 32> end
| 33>
| 34> * xyz 0 1
| 35>   C                      -8.402914            10.317760            -3.100423
| 36>   O                      -9.775966            10.142569            -3.347010
| 37>   H                      -9.913859            9.784764             -4.223316
| 38>   H                      -8.134308            11.391179            -3.022776
| 39>   H                      -8.040535            9.777013             -2.204888
| 40>   H                      -7.769791            10.002790            -3.861557
| 41>   C                    : -11.337980           8.143911             -6.291667
| 42>   O                    : -10.056986           8.554640             -5.865743
| 43>   H                    : -9.458282            8.514964             -6.656349
| 44>   H                    : -12.131608           8.879031             -6.239528
| 45>   H                    : -11.229293           7.865846             -7.360883
| 46>   H                    : -11.542811           7.283595             -5.636670
| 47> *
| 48>
| 49> #Run DFT-D3 single point of the particle with dimer basis set
| 50> $new_job
| 51> %base "18-180_DFT_B"
| 52> ! wB97X-D3 def2-TZVP TIGHTSCF CHELPG PMODEL
| 53>
| 54> %scf
| 55> MaxIter 1000
| 56> end
| 57>
| 58> * xyz 0 1
| 59>   C                    : -8.402914            10.317760            -3.100423
| 60>   O                    : -9.775966            10.142569            -3.347010
| 61>   H                    : -9.913859            9.784764             -4.223316
| 62>   H                    : -8.134308            11.391179            -3.022776
| 63>   H                    : -8.040535            9.777013             -2.204888
| 64>   H                    : -7.769791            10.002790            -3.861557
| 65>   C                      -11.337980           8.143911             -6.291667
| 66>   O                      -10.056986           8.554640             -5.865743
| 67>   H                      -9.458282            8.514964             -6.656349
| 68>   H                      -12.131608           8.879031             -6.239528
| 69>   H                      -11.229293           7.865846             -7.360883
| 70>   H                      -11.542811           7.283595             -5.636670
| 71> *
| 72>
| 73>                          ****END OF INPUT****
 Total Charge           Charge          ....    0
 Multiplicity           Mult            ....    1
 Number of Electrons    NEL             ....   36
Dispersion correction           -0.001581361
FINAL SINGLE POINT ENERGY      -231.469695743713
Dispersion correction           -0.000257592
FINAL SINGLE POINT ENERGY      -115.731811800884

CARTESIAN COORDINATES (ANGSTROEM)
---------------------------------
  C     -8.402914   10.317760   -3.100423
  O     -9.775966   10.142569   -3.347010
  H     -9.913859    9.784764   -4.223316
  H     -8.134308   11.391179   -3.022776
  H     -8.040535    9.777013   -2.204888
  H     -7.769791   10.002790   -3.861557
  C    -11.337980    8.143911   -6.291667
  O    -10.056986    8.554640   -5.865743
  H     -9.458282    8.514964   -6.656349
  H    -12.131608    8.879031   -6.239528
  H    -11.229293    7.865846   -7.360883
  H    -11.542811    7.283595   -5.636670

 Multiplicity           Mult            ....    1
 Number of Electrons    NEL             ....   18
 Basis Dimension        Dim             ....  172

ORBITAL ENERGIES
----------------

  NO   OCC          E(Eh)            E(eV)
   0   2.0000     -19.230098      -523.2776
   1   2.0000     -10.313877      -280.6549
   2   2.0000      -1.131762       -30.7968
   3   2.0000      -0.789046       -21.4710
   4   2.0000      -0.608928       -16.5698
   5   2.0000      -0.543840       -14.7986
   6   2.0000      -0.528149       -14.3717
   7   2.0000      -0.428094       -11.6490
   8   2.0000      -0.370748       -10.0886
   9   0.0000       0.095986         2.6119
  10   0.0000       0.116104         3.1594
  11   0.0000       0.154007         4.1907
  12   0.0000       0.185756         5.0547
  13   0.0000       0.201545         5.4843

MULLIKEN ATOMIC CHARGES
-----------------------
   0 C :    0.001656
   1 O :   -0.000668
   2 H :   -0.007971
   3 H :   -0.000086
   4 H :   -0.000069
   5 H :   -0.002264
   6 C :   -0.147736
   7 O :   -0.471859
   8 H :    0.317616
   9 H :    0.108834
  10 H :    0.092229
  11 H :    0.110318
Sum of atomic charges:    0.0000000

LOEWDIN ATOMIC CHARGES
----------------------
   0 C :   -0.002655
   1 O :   -0.003553
   2 H :   -0.032821
   3 H :   -0.000024
   4 H :   -0.000024
   5 H :   -0.000811
   6 C :   -0.384587
   7 O :   -0.063911
   8 H :    0.188060
   9 H :    0.094052
  10 H :    0.100748
  11 H :    0.105525

  Mayer bond orders larger than 0.1
B(  6-C ,  7-O ) :   0.9939 B(  6-C ,  9-H ) :   0.9671 B(  6-C , 10-H ) :   0.9874
B(  6-C , 11-H ) :   0.9835 B(  7-O ,  8-H ) :   0.8956

Dispersion correction           -0.000234228
FINAL SINGLE POINT ENERGY      -115.729596593344

DIPOLE MOMENT
-------------
                                X             Y             Z
Electronic contribution:      1.46191       0.60363       0.70393
Nuclear contribution   :     -1.57941      -0.79297      -1.39063
                        -----------------------------------------
Total Dipole Moment    :     -0.11750      -0.18934      -0.68670
                        -----------------------------------------
Magnitude (a.u.)       :      0.72195
Magnitude (Debye)      :      1.83505

Rotational constants in cm-1:     4.139501     0.845168     0.808870
Rotational constants in MHz : 124099.130516 25337.503757 24249.318052

                             ****ORCA TERMINATED NORMALLY****
TOTAL RUN TIME: 0 days 0 hours 0 minutes 56 seconds 821 msec
