                         Program Version 4.1.2  - RELEASE  -
|  1> #Run DFT-D3 single point of the dimer
|  2> ! wB97X-D3 def2-TZVP TIGHTSCF CHELPG PMODEL PAL8
|  3>
|  4> %base "4-149_DFT_AB"
|  5>
|  6> %scf
|  7> MaxIter 1000
|  8> end
|  9>
| 10> * xyz 0 1
| 11>   C                      -7.165838            1.970965             -4.316710
| 12>   O                      -8.140504            2.659230             -3.460284
| 13>   H                      -7.664392            2.899198             -2.666859
| 14>   H                      -6.972118            0.987659             -3.975152
| 15>   H                      -7.564475            1.801484             -5.267749
| 16>   H                      -6.156702            2.463355             -4.387189
| 17>   C                      -5.431064            3.410645             -1.481040
| 18>   O                      -6.528782            2.810912             -0.803507
| 19>   H                      -6.199475            2.257877             -0.068820
| 20>   H                      -4.735965            3.634254             -0.724739
| 21>   H                      -4.972894            2.724629             -2.260108
| 22>   H                      -5.614087            4.338414             -1.991813
| 23> *
| 24>
| 25> #Run DFT-D3 single point of the molecule with dimer basis set
| 26> $new_job
| 27> %base "4-149_DFT_A"
| 28> ! wB97X-D3 def2-TZVP TIGHTSCF CHELPG PMODEL
| 29>
| 30> %scf
| 31> MaxIter 1000
| 32> end
| 33>
| 34> * xyz 0 1
| 35>   C                      -7.165838            1.970965             -4.316710
| 36>   O                      -8.140504            2.659230             -3.460284
| 37>   H                      -7.664392            2.899198             -2.666859
| 38>   H                      -6.972118            0.987659             -3.975152
| 39>   H                      -7.564475            1.801484             -5.267749
| 40>   H                      -6.156702            2.463355             -4.387189
| 41>   C                    : -5.431064            3.410645             -1.481040
| 42>   O                    : -6.528782            2.810912             -0.803507
| 43>   H                    : -6.199475            2.257877             -0.068820
| 44>   H                    : -4.735965            3.634254             -0.724739
| 45>   H                    : -4.972894            2.724629             -2.260108
| 46>   H                    : -5.614087            4.338414             -1.991813
| 47> *
| 48>
| 49> #Run DFT-D3 single point of the particle with dimer basis set
| 50> $new_job
| 51> %base "4-149_DFT_B"
| 52> ! wB97X-D3 def2-TZVP TIGHTSCF CHELPG PMODEL
| 53>
| 54> %scf
| 55> MaxIter 1000
| 56> end
| 57>
| 58> * xyz 0 1
| 59>   C                    : -7.165838            1.970965             -4.316710
| 60>   O                    : -8.140504            2.659230             -3.460284
| 61>   H                    : -7.664392            2.899198             -2.666859
| 62>   H                    : -6.972118            0.987659             -3.975152
| 63>   H                    : -7.564475            1.801484             -5.267749
| 64>   H                    : -6.156702            2.463355             -4.387189
| 65>   C                      -5.431064            3.410645             -1.481040
| 66>   O                      -6.528782            2.810912             -0.803507
| 67>   H                      -6.199475            2.257877             -0.068820
| 68>   H                      -4.735965            3.634254             -0.724739
| 69>   H                      -4.972894            2.724629             -2.260108
| 70>   H                      -5.614087            4.338414             -1.991813
| 71> *
| 72>
| 73>                          ****END OF INPUT****
 Total Charge           Charge          ....    0
 Multiplicity           Mult            ....    1
 Number of Electrons    NEL             ....   36
Dispersion correction           -0.002228375
FINAL SINGLE POINT ENERGY      -231.465734161547
Dispersion correction           -0.000265872
FINAL SINGLE POINT ENERGY      -115.730831242896

CARTESIAN COORDINATES (ANGSTROEM)
---------------------------------
  C     -7.165838    1.970965   -4.316710
  O     -8.140504    2.659230   -3.460284
  H     -7.664392    2.899198   -2.666859
  H     -6.972118    0.987659   -3.975152
  H     -7.564475    1.801484   -5.267749
  H     -6.156702    2.463355   -4.387189
  C     -5.431064    3.410645   -1.481040
  O     -6.528782    2.810912   -0.803507
  H     -6.199475    2.257877   -0.068820
  H     -4.735965    3.634254   -0.724739
  H     -4.972894    2.724629   -2.260108
  H     -5.614087    4.338414   -1.991813

 Multiplicity           Mult            ....    1
 Number of Electrons    NEL             ....   18
 Basis Dimension        Dim             ....  172

ORBITAL ENERGIES
----------------

  NO   OCC          E(Eh)            E(eV)
   0   2.0000     -19.230621      -523.2918
   1   2.0000     -10.311994      -280.6036
   2   2.0000      -1.129818       -30.7439
   3   2.0000      -0.797625       -21.7045
   4   2.0000      -0.607433       -16.5291
   5   2.0000      -0.542669       -14.7668
   6   2.0000      -0.533856       -14.5269
   7   2.0000      -0.426137       -11.5958
   8   2.0000      -0.372925       -10.1478
   9   0.0000       0.094059         2.5595
  10   0.0000       0.121543         3.3074
  11   0.0000       0.152689         4.1549
  12   0.0000       0.180996         4.9251
  13   0.0000       0.195250         5.3130

MULLIKEN ATOMIC CHARGES
-----------------------
   0 C :    0.003656
   1 O :   -0.001220
   2 H :   -0.000622
   3 H :   -0.001342
   4 H :    0.000228
   5 H :   -0.001700
   6 C :   -0.182268
   7 O :   -0.483984
   8 H :    0.318284
   9 H :    0.119600
  10 H :    0.103484
  11 H :    0.125883
Sum of atomic charges:    0.0000000

LOEWDIN ATOMIC CHARGES
----------------------
   0 C :   -0.005123
   1 O :   -0.002243
   2 H :   -0.020242
   3 H :   -0.000379
   4 H :   -0.000016
   5 H :   -0.003529
   6 C :   -0.371992
   7 O :   -0.077097
   8 H :    0.179054
   9 H :    0.090833
  10 H :    0.105917
  11 H :    0.104817

  Mayer bond orders larger than 0.1
B(  6-C ,  7-O ) :   0.9867 B(  6-C ,  9-H ) :   0.9855 B(  6-C , 10-H ) :   0.9721
B(  6-C , 11-H ) :   0.9726 B(  7-O ,  8-H ) :   0.8932

Dispersion correction           -0.000246970
FINAL SINGLE POINT ENERGY      -115.729802283055

DIPOLE MOMENT
-------------
                                X             Y             Z
Electronic contribution:     -1.54735      -0.62279       0.77078
Nuclear contribution   :      2.21418       0.55589      -0.54431
                        -----------------------------------------
Total Dipole Moment    :      0.66684      -0.06690       0.22647
                        -----------------------------------------
Magnitude (a.u.)       :      0.70742
Magnitude (Debye)      :      1.79811

Rotational constants in cm-1:     4.411229     0.813400     0.793160
Rotational constants in MHz : 132245.320984 24385.120352 23778.327549

                             ****ORCA TERMINATED NORMALLY****
TOTAL RUN TIME: 0 days 0 hours 1 minutes 36 seconds 365 msec
