                         Program Version 4.1.2  - RELEASE  -
|  1> #Run DFT-D3 single point of the dimer
|  2> ! wB97X-D3 def2-TZVP TIGHTSCF CHELPG PMODEL PAL8
|  3>
|  4> %base "2-24_DFT_AB"
|  5>
|  6> %scf
|  7> MaxIter 1000
|  8> end
|  9>
| 10> * xyz 0 1
| 11>   C                      3.461109             3.222378             4.105244
| 12>   O                      3.157580             2.071432             3.453058
| 13>   H                      2.370845             1.638740             3.819682
| 14>   H                      3.982423             3.051816             5.032330
| 15>   H                      4.203252             3.873688             3.594400
| 16>   H                      2.649209             3.897304             4.300673
| 17>   C                      8.266967             3.915766             8.090470
| 18>   O                      7.783434             3.355266             9.297443
| 19>   H                      7.216786             2.576586             9.211333
| 20>   H                      8.978086             3.314394             7.522510
| 21>   H                      7.382926             4.084775             7.431414
| 22>   H                      8.766206             4.810743             8.270627
| 23> *
| 24>
| 25> #Run DFT-D3 single point of the molecule with dimer basis set
| 26> $new_job
| 27> %base "2-24_DFT_A"
| 28> ! wB97X-D3 def2-TZVP TIGHTSCF CHELPG PMODEL
| 29>
| 30> %scf
| 31> MaxIter 1000
| 32> end
| 33>
| 34> * xyz 0 1
| 35>   C                      3.461109             3.222378             4.105244
| 36>   O                      3.157580             2.071432             3.453058
| 37>   H                      2.370845             1.638740             3.819682
| 38>   H                      3.982423             3.051816             5.032330
| 39>   H                      4.203252             3.873688             3.594400
| 40>   H                      2.649209             3.897304             4.300673
| 41>   C                    : 8.266967             3.915766             8.090470
| 42>   O                    : 7.783434             3.355266             9.297443
| 43>   H                    : 7.216786             2.576586             9.211333
| 44>   H                    : 8.978086             3.314394             7.522510
| 45>   H                    : 7.382926             4.084775             7.431414
| 46>   H                    : 8.766206             4.810743             8.270627
| 47> *
| 48>
| 49> #Run DFT-D3 single point of the particle with dimer basis set
| 50> $new_job
| 51> %base "2-24_DFT_B"
| 52> ! wB97X-D3 def2-TZVP TIGHTSCF CHELPG PMODEL
| 53>
| 54> %scf
| 55> MaxIter 1000
| 56> end
| 57>
| 58> * xyz 0 1
| 59>   C                    : 3.461109             3.222378             4.105244
| 60>   O                    : 3.157580             2.071432             3.453058
| 61>   H                    : 2.370845             1.638740             3.819682
| 62>   H                    : 3.982423             3.051816             5.032330
| 63>   H                    : 4.203252             3.873688             3.594400
| 64>   H                    : 2.649209             3.897304             4.300673
| 65>   C                      8.266967             3.915766             8.090470
| 66>   O                      7.783434             3.355266             9.297443
| 67>   H                      7.216786             2.576586             9.211333
| 68>   H                      8.978086             3.314394             7.522510
| 69>   H                      7.382926             4.084775             7.431414
| 70>   H                      8.766206             4.810743             8.270627
| 71> *
| 72>
| 73>                          ****END OF INPUT****
 Total Charge           Charge          ....    0
 Multiplicity           Mult            ....    1
 Number of Electrons    NEL             ....   36
Dispersion correction           -0.000595786
FINAL SINGLE POINT ENERGY      -231.462662758845
Dispersion correction           -0.000243364
FINAL SINGLE POINT ENERGY      -115.730883019326

CARTESIAN COORDINATES (ANGSTROEM)
---------------------------------
  C      3.461109    3.222378    4.105244
  O      3.157580    2.071432    3.453058
  H      2.370845    1.638740    3.819682
  H      3.982423    3.051816    5.032330
  H      4.203252    3.873688    3.594400
  H      2.649209    3.897304    4.300673
  C      8.266967    3.915766    8.090470
  O      7.783434    3.355266    9.297443
  H      7.216786    2.576586    9.211333
  H      8.978086    3.314394    7.522510
  H      7.382926    4.084775    7.431414
  H      8.766206    4.810743    8.270627

 Multiplicity           Mult            ....    1
 Number of Electrons    NEL             ....   18
 Basis Dimension        Dim             ....  172

ORBITAL ENERGIES
----------------

  NO   OCC          E(Eh)            E(eV)
   0   2.0000     -19.226766      -523.1869
   1   2.0000     -10.310427      -280.5610
   2   2.0000      -1.128218       -30.7004
   3   2.0000      -0.802554       -21.8386
   4   2.0000      -0.610941       -16.6246
   5   2.0000      -0.542946       -14.7743
   6   2.0000      -0.530118       -14.4252
   7   2.0000      -0.424810       -11.5597
   8   2.0000      -0.370428       -10.0799
   9   0.0000       0.082172         2.2360
  10   0.0000       0.114289         3.1100
  11   0.0000       0.148860         4.0507
  12   0.0000       0.162848         4.4313
  13   0.0000       0.187772         5.1095

MULLIKEN ATOMIC CHARGES
-----------------------
   0 C :    0.000030
   1 O :   -0.000001
   2 H :   -0.000000
   3 H :   -0.000076
   4 H :   -0.000008
   5 H :   -0.000002
   6 C :   -0.145454
   7 O :   -0.494997
   8 H :    0.320335
   9 H :    0.096262
  10 H :    0.098605
  11 H :    0.125308
Sum of atomic charges:   -0.0000000

LOEWDIN ATOMIC CHARGES
----------------------
   0 C :   -0.000013
   1 O :   -0.000000
   2 H :   -0.000000
   3 H :   -0.000036
   4 H :   -0.000002
   5 H :   -0.000000
   6 C :   -0.374391
   7 O :   -0.085328
   8 H :    0.170267
   9 H :    0.092148
  10 H :    0.100782
  11 H :    0.096574

  Mayer bond orders larger than 0.1
B(  6-C ,  7-O ) :   0.9964 B(  6-C ,  9-H ) :   0.9692 B(  6-C , 10-H ) :   0.9877
B(  6-C , 11-H ) :   0.9722 B(  7-O ,  8-H ) :   0.8907

Dispersion correction           -0.000259657
FINAL SINGLE POINT ENERGY      -115.731666792438

DIPOLE MOMENT
-------------
                                X             Y             Z
Electronic contribution:     -0.46848      -0.59082       1.64098
Nuclear contribution   :      0.30913       0.32762      -2.19200
                        -----------------------------------------
Total Dipole Moment    :     -0.15935      -0.26320      -0.55102
                        -----------------------------------------
Magnitude (a.u.)       :      0.63111
Magnitude (Debye)      :      1.60415

Rotational constants in cm-1:     4.507538     0.818058     0.792281
Rotational constants in MHz : 135132.578666 24524.771726 23751.991650

                             ****ORCA TERMINATED NORMALLY****
TOTAL RUN TIME: 0 days 0 hours 5 minutes 35 seconds 120 msec
