                         Program Version 4.1.2  - RELEASE  -
|  1> #Run DFT-D3 single point of the dimer
|  2> ! wB97X-D3 def2-TZVP TIGHTSCF CHELPG PMODEL PAL8
|  3>
|  4> %base "15-169_DFT_AB"
|  5>
|  6> %scf
|  7> MaxIter 1000
|  8> end
|  9>
| 10> * xyz 0 1
| 11>   C                      -2.661434            0.095099             -1.013179
| 12>   O                      -3.238537            1.069245             -1.880660
| 13>   H                      -2.525407            1.523243             -2.362530
| 14>   H                      -3.455402            -0.406456            -0.357671
| 15>   H                      -2.118193            -0.664322            -1.552945
| 16>   H                      -2.095586            0.597081             -0.237835
| 17>   C                      -5.584144            4.216774             -2.974492
| 18>   O                      -5.488972            2.817848             -2.786760
| 19>   H                      -4.762711            2.523080             -2.276914
| 20>   H                      -4.592497            4.686853             -2.957562
| 21>   H                      -6.122841            4.609606             -3.841734
| 22>   H                      -6.019252            4.673570             -2.114456
| 23> *
| 24>
| 25> #Run DFT-D3 single point of the molecule with dimer basis set
| 26> $new_job
| 27> %base "15-169_DFT_A"
| 28> ! wB97X-D3 def2-TZVP TIGHTSCF CHELPG PMODEL
| 29>
| 30> %scf
| 31> MaxIter 1000
| 32> end
| 33>
| 34> * xyz 0 1
| 35>   C                      -2.661434            0.095099             -1.013179
| 36>   O                      -3.238537            1.069245             -1.880660
| 37>   H                      -2.525407            1.523243             -2.362530
| 38>   H                      -3.455402            -0.406456            -0.357671
| 39>   H                      -2.118193            -0.664322            -1.552945
| 40>   H                      -2.095586            0.597081             -0.237835
| 41>   C                    : -5.584144            4.216774             -2.974492
| 42>   O                    : -5.488972            2.817848             -2.786760
| 43>   H                    : -4.762711            2.523080             -2.276914
| 44>   H                    : -4.592497            4.686853             -2.957562
| 45>   H                    : -6.122841            4.609606             -3.841734
| 46>   H                    : -6.019252            4.673570             -2.114456
| 47> *
| 48>
| 49> #Run DFT-D3 single point of the particle with dimer basis set
| 50> $new_job
| 51> %base "15-169_DFT_B"
| 52> ! wB97X-D3 def2-TZVP TIGHTSCF CHELPG PMODEL
| 53>
| 54> %scf
| 55> MaxIter 1000
| 56> end
| 57>
| 58> * xyz 0 1
| 59>   C                    : -2.661434            0.095099             -1.013179
| 60>   O                    : -3.238537            1.069245             -1.880660
| 61>   H                    : -2.525407            1.523243             -2.362530
| 62>   H                    : -3.455402            -0.406456            -0.357671
| 63>   H                    : -2.118193            -0.664322            -1.552945
| 64>   H                    : -2.095586            0.597081             -0.237835
| 65>   C                      -5.584144            4.216774             -2.974492
| 66>   O                      -5.488972            2.817848             -2.786760
| 67>   H                      -4.762711            2.523080             -2.276914
| 68>   H                      -4.592497            4.686853             -2.957562
| 69>   H                      -6.122841            4.609606             -3.841734
| 70>   H                      -6.019252            4.673570             -2.114456
| 71> *
| 72>
| 73>                          ****END OF INPUT****
 Total Charge           Charge          ....    0
 Multiplicity           Mult            ....    1
 Number of Electrons    NEL             ....   36
Dispersion correction           -0.001315381
FINAL SINGLE POINT ENERGY      -231.466151886400
Dispersion correction           -0.000250741
FINAL SINGLE POINT ENERGY      -115.732452796759

CARTESIAN COORDINATES (ANGSTROEM)
---------------------------------
  C     -2.661434    0.095099   -1.013179
  O     -3.238537    1.069245   -1.880660
  H     -2.525407    1.523243   -2.362530
  H     -3.455402   -0.406456   -0.357671
  H     -2.118193   -0.664322   -1.552945
  H     -2.095586    0.597081   -0.237835
  C     -5.584144    4.216774   -2.974492
  O     -5.488972    2.817848   -2.786760
  H     -4.762711    2.523080   -2.276914
  H     -4.592497    4.686853   -2.957562
  H     -6.122841    4.609606   -3.841734
  H     -6.019252    4.673570   -2.114456

 Multiplicity           Mult            ....    1
 Number of Electrons    NEL             ....   18
 Basis Dimension        Dim             ....  172

ORBITAL ENERGIES
----------------

  NO   OCC          E(Eh)            E(eV)
   0   2.0000     -19.225972      -523.1653
   1   2.0000     -10.312412      -280.6150
   2   2.0000      -1.136024       -30.9128
   3   2.0000      -0.805284       -21.9129
   4   2.0000      -0.620700       -16.8901
   5   2.0000      -0.539047       -14.6682
   6   2.0000      -0.531214       -14.4551
   7   2.0000      -0.425558       -11.5800
   8   2.0000      -0.371010       -10.0957
   9   0.0000       0.074371         2.0237
  10   0.0000       0.124617         3.3910
  11   0.0000       0.148257         4.0343
  12   0.0000       0.174301         4.7430
  13   0.0000       0.197198         5.3660

MULLIKEN ATOMIC CHARGES
-----------------------
   0 C :    0.000013
   1 O :   -0.001528
   2 H :   -0.001428
   3 H :    0.000004
   4 H :   -0.000007
   5 H :   -0.000016
   6 C :   -0.160021
   7 O :   -0.482730
   8 H :    0.313639
   9 H :    0.099824
  10 H :    0.125935
  11 H :    0.106315
Sum of atomic charges:    0.0000000

LOEWDIN ATOMIC CHARGES
----------------------
   0 C :   -0.000619
   1 O :   -0.010840
   2 H :   -0.002135
   3 H :   -0.000027
   4 H :   -0.000020
   5 H :   -0.000018
   6 C :   -0.378790
   7 O :   -0.060458
   8 H :    0.155901
   9 H :    0.097591
  10 H :    0.108934
  11 H :    0.090482

  Mayer bond orders larger than 0.1
B(  6-C ,  7-O ) :   0.9871 B(  6-C ,  9-H ) :   0.9834 B(  6-C , 10-H ) :   0.9678
B(  6-C , 11-H ) :   0.9825 B(  7-O ,  8-H ) :   0.9004

Dispersion correction           -0.000256573
FINAL SINGLE POINT ENERGY      -115.728484577822

DIPOLE MOMENT
-------------
                                X             Y             Z
Electronic contribution:     -0.05869      -1.89335       0.04090
Nuclear contribution   :      0.51029       2.30437       0.22937
                        -----------------------------------------
Total Dipole Moment    :      0.45160       0.41102       0.27027
                        -----------------------------------------
Magnitude (a.u.)       :      0.66778
Magnitude (Debye)      :      1.69736

Rotational constants in cm-1:     4.660790     0.816429     0.784446
Rotational constants in MHz : 139726.967151 24475.929819 23517.085270

                             ****ORCA TERMINATED NORMALLY****
TOTAL RUN TIME: 0 days 0 hours 1 minutes 3 seconds 657 msec
