                         Program Version 4.1.2  - RELEASE  -
|  1> #Run DFT-D3 single point of the dimer
|  2> ! wB97X-D3 def2-TZVP TIGHTSCF CHELPG PMODEL PAL8
|  3>
|  4> %base "11-35_DFT_AB"
|  5>
|  6> %scf
|  7> MaxIter 1000
|  8> end
|  9>
| 10> * xyz 0 1
| 11>   C                      -4.262804            -3.298811            4.931557
| 12>   O                      -3.864564            -2.942529            6.210114
| 13>   H                      -2.899731            -2.834253            6.123950
| 14>   H                      -4.286093            -4.428996            4.908977
| 15>   H                      -5.227939            -2.841040            4.620827
| 16>   H                      -3.491225            -3.035285            4.130311
| 17>   C                      -6.180716            -0.682254            7.171741
| 18>   O                      -6.499451            -2.054292            7.213974
| 19>   H                      -5.640469            -2.484737            7.183619
| 20>   H                      -6.759320            -0.134508            6.378333
| 21>   H                      -6.352808            -0.289618            8.170732
| 22>   H                      -5.133995            -0.500338            6.914693
| 23> *
| 24>
| 25> #Run DFT-D3 single point of the molecule with dimer basis set
| 26> $new_job
| 27> %base "11-35_DFT_A"
| 28> ! wB97X-D3 def2-TZVP TIGHTSCF CHELPG PMODEL
| 29>
| 30> %scf
| 31> MaxIter 1000
| 32> end
| 33>
| 34> * xyz 0 1
| 35>   C                      -4.262804            -3.298811            4.931557
| 36>   O                      -3.864564            -2.942529            6.210114
| 37>   H                      -2.899731            -2.834253            6.123950
| 38>   H                      -4.286093            -4.428996            4.908977
| 39>   H                      -5.227939            -2.841040            4.620827
| 40>   H                      -3.491225            -3.035285            4.130311
| 41>   C                    : -6.180716            -0.682254            7.171741
| 42>   O                    : -6.499451            -2.054292            7.213974
| 43>   H                    : -5.640469            -2.484737            7.183619
| 44>   H                    : -6.759320            -0.134508            6.378333
| 45>   H                    : -6.352808            -0.289618            8.170732
| 46>   H                    : -5.133995            -0.500338            6.914693
| 47> *
| 48>
| 49> #Run DFT-D3 single point of the particle with dimer basis set
| 50> $new_job
| 51> %base "11-35_DFT_B"
| 52> ! wB97X-D3 def2-TZVP TIGHTSCF CHELPG PMODEL
| 53>
| 54> %scf
| 55> MaxIter 1000
| 56> end
| 57>
| 58> * xyz 0 1
| 59>   C                    : -4.262804            -3.298811            4.931557
| 60>   O                    : -3.864564            -2.942529            6.210114
| 61>   H                    : -2.899731            -2.834253            6.123950
| 62>   H                    : -4.286093            -4.428996            4.908977
| 63>   H                    : -5.227939            -2.841040            4.620827
| 64>   H                    : -3.491225            -3.035285            4.130311
| 65>   C                      -6.180716            -0.682254            7.171741
| 66>   O                      -6.499451            -2.054292            7.213974
| 67>   H                      -5.640469            -2.484737            7.183619
| 68>   H                      -6.759320            -0.134508            6.378333
| 69>   H                      -6.352808            -0.289618            8.170732
| 70>   H                      -5.133995            -0.500338            6.914693
| 71> *
| 72>
| 73>                          ****END OF INPUT****
 Total Charge           Charge          ....    0
 Multiplicity           Mult            ....    1
 Number of Electrons    NEL             ....   36
Dispersion correction           -0.002084332
FINAL SINGLE POINT ENERGY      -231.472152050551
Dispersion correction           -0.000233823
FINAL SINGLE POINT ENERGY      -115.730172701644

CARTESIAN COORDINATES (ANGSTROEM)
---------------------------------
  C     -4.262804   -3.298811    4.931557
  O     -3.864564   -2.942529    6.210114
  H     -2.899731   -2.834253    6.123950
  H     -4.286093   -4.428996    4.908977
  H     -5.227939   -2.841040    4.620827
  H     -3.491225   -3.035285    4.130311
  C     -6.180716   -0.682254    7.171741
  O     -6.499451   -2.054292    7.213974
  H     -5.640469   -2.484737    7.183619
  H     -6.759320   -0.134508    6.378333
  H     -6.352808   -0.289618    8.170732
  H     -5.133995   -0.500338    6.914693

 Multiplicity           Mult            ....    1
 Number of Electrons    NEL             ....   18
 Basis Dimension        Dim             ....  172

ORBITAL ENERGIES
----------------

  NO   OCC          E(Eh)            E(eV)
   0   2.0000     -19.231992      -523.3291
   1   2.0000     -10.315207      -280.6911
   2   2.0000      -1.141429       -31.0598
   3   2.0000      -0.790991       -21.5240
   4   2.0000      -0.613820       -16.7029
   5   2.0000      -0.547373       -14.8948
   6   2.0000      -0.521206       -14.1827
   7   2.0000      -0.436279       -11.8718
   8   2.0000      -0.374776       -10.1982
   9   0.0000       0.070698         1.9238
  10   0.0000       0.136082         3.7030
  11   0.0000       0.150876         4.1056
  12   0.0000       0.162128         4.4117
  13   0.0000       0.193660         5.2697

MULLIKEN ATOMIC CHARGES
-----------------------
   0 C :   -0.004694
   1 O :   -0.003523
   2 H :   -0.000163
   3 H :    0.000474
   4 H :   -0.004318
   5 H :   -0.000299
   6 C :   -0.172532
   7 O :   -0.459104
   8 H :    0.317911
   9 H :    0.109347
  10 H :    0.113121
  11 H :    0.103780
Sum of atomic charges:   -0.0000000

LOEWDIN ATOMIC CHARGES
----------------------
   0 C :   -0.008823
   1 O :   -0.013956
   2 H :   -0.000488
   3 H :   -0.000137
   4 H :   -0.003914
   5 H :   -0.000115
   6 C :   -0.391838
   7 O :   -0.060998
   8 H :    0.177992
   9 H :    0.108276
  10 H :    0.098421
  11 H :    0.095580

  Mayer bond orders larger than 0.1
B(  6-C ,  7-O ) :   0.9906 B(  6-C ,  9-H ) :   0.9701 B(  6-C , 10-H ) :   0.9826
B(  6-C , 11-H ) :   0.9829 B(  7-O ,  8-H ) :   0.9055

Dispersion correction           -0.000234367
FINAL SINGLE POINT ENERGY      -115.733732536813

DIPOLE MOMENT
-------------
                                X             Y             Z
Electronic contribution:     -0.59937      -1.74280       0.07676
Nuclear contribution   :      1.28033       2.00321      -0.11127
                        -----------------------------------------
Total Dipole Moment    :      0.68096       0.26042      -0.03452
                        -----------------------------------------
Magnitude (a.u.)       :      0.72988
Magnitude (Debye)      :      1.85520

Rotational constants in cm-1:     4.193778     0.837743     0.812848
Rotational constants in MHz : 125726.297901 25114.901576 24368.565662

                             ****ORCA TERMINATED NORMALLY****
TOTAL RUN TIME: 0 days 0 hours 1 minutes 14 seconds 435 msec
