                         Program Version 4.1.2  - RELEASE  -
|  1> #Run DFT-D3 single point of the dimer
|  2> ! wB97X-D3 def2-TZVP TIGHTSCF CHELPG PMODEL PAL8
|  3>
|  4> %base "8-15_DFT_AB"
|  5>
|  6> %scf
|  7> MaxIter 1000
|  8> end
|  9>
| 10> * xyz 0 1
| 11>   C                      0.003535             -5.877715            10.140912
| 12>   O                      0.318346             -4.605744            10.783172
| 13>   H                      1.007645             -4.757691            11.420423
| 14>   H                      -0.478516            -5.721957            9.157673
| 15>   H                      0.881340             -6.498868            10.075310
| 16>   H                      -0.767575            -6.350094            10.780891
| 17>   C                      -1.836438            -10.187012           8.477243
| 18>   O                      -3.182947            -10.585800           8.737161
| 19>   H                      -3.371845            -11.517466           8.417675
| 20>   H                      -1.785848            -9.646708            7.498774
| 21>   H                      -1.443843            -9.424437            9.185187
| 22>   H                      -1.188261            -11.073030           8.387025
| 23> *
| 24>
| 25> #Run DFT-D3 single point of the molecule with dimer basis set
| 26> $new_job
| 27> %base "8-15_DFT_A"
| 28> ! wB97X-D3 def2-TZVP TIGHTSCF CHELPG PMODEL
| 29>
| 30> %scf
| 31> MaxIter 1000
| 32> end
| 33>
| 34> * xyz 0 1
| 35>   C                      0.003535             -5.877715            10.140912
| 36>   O                      0.318346             -4.605744            10.783172
| 37>   H                      1.007645             -4.757691            11.420423
| 38>   H                      -0.478516            -5.721957            9.157673
| 39>   H                      0.881340             -6.498868            10.075310
| 40>   H                      -0.767575            -6.350094            10.780891
| 41>   C                    : -1.836438            -10.187012           8.477243
| 42>   O                    : -3.182947            -10.585800           8.737161
| 43>   H                    : -3.371845            -11.517466           8.417675
| 44>   H                    : -1.785848            -9.646708            7.498774
| 45>   H                    : -1.443843            -9.424437            9.185187
| 46>   H                    : -1.188261            -11.073030           8.387025
| 47> *
| 48>
| 49> #Run DFT-D3 single point of the particle with dimer basis set
| 50> $new_job
| 51> %base "8-15_DFT_B"
| 52> ! wB97X-D3 def2-TZVP TIGHTSCF CHELPG PMODEL
| 53>
| 54> %scf
| 55> MaxIter 1000
| 56> end
| 57>
| 58> * xyz 0 1
| 59>   C                    : 0.003535             -5.877715            10.140912
| 60>   O                    : 0.318346             -4.605744            10.783172
| 61>   H                    : 1.007645             -4.757691            11.420423
| 62>   H                    : -0.478516            -5.721957            9.157673
| 63>   H                    : 0.881340             -6.498868            10.075310
| 64>   H                    : -0.767575            -6.350094            10.780891
| 65>   C                      -1.836438            -10.187012           8.477243
| 66>   O                      -3.182947            -10.585800           8.737161
| 67>   H                      -3.371845            -11.517466           8.417675
| 68>   H                      -1.785848            -9.646708            7.498774
| 69>   H                      -1.443843            -9.424437            9.185187
| 70>   H                      -1.188261            -11.073030           8.387025
| 71> *
| 72>
| 73>                          ****END OF INPUT****
 Total Charge           Charge          ....    0
 Multiplicity           Mult            ....    1
 Number of Electrons    NEL             ....   36
Dispersion correction           -0.000842100
FINAL SINGLE POINT ENERGY      -231.464222972086
Dispersion correction           -0.000249233
FINAL SINGLE POINT ENERGY      -115.733460390510

CARTESIAN COORDINATES (ANGSTROEM)
---------------------------------
  C      0.003535   -5.877715   10.140912
  O      0.318346   -4.605744   10.783172
  H      1.007645   -4.757691   11.420423
  H     -0.478516   -5.721957    9.157673
  H      0.881340   -6.498868   10.075310
  H     -0.767575   -6.350094   10.780891
  C     -1.836438  -10.187012    8.477243
  O     -3.182947  -10.585800    8.737161
  H     -3.371845  -11.517466    8.417675
  H     -1.785848   -9.646708    7.498774
  H     -1.443843   -9.424437    9.185187
  H     -1.188261  -11.073030    8.387025

 Multiplicity           Mult            ....    1
 Number of Electrons    NEL             ....   18
 Basis Dimension        Dim             ....  172

ORBITAL ENERGIES
----------------

  NO   OCC          E(Eh)            E(eV)
   0   2.0000     -19.232021      -523.3299
   1   2.0000     -10.319833      -280.8169
   2   2.0000      -1.121343       -30.5133
   3   2.0000      -0.790162       -21.5014
   4   2.0000      -0.603789       -16.4299
   5   2.0000      -0.535792       -14.5796
   6   2.0000      -0.524470       -14.2716
   7   2.0000      -0.429000       -11.6737
   8   2.0000      -0.367639       -10.0040
   9   0.0000       0.083564         2.2739
  10   0.0000       0.108628         2.9559
  11   0.0000       0.138955         3.7812
  12   0.0000       0.174485         4.7480
  13   0.0000       0.188493         5.1292

MULLIKEN ATOMIC CHARGES
-----------------------
   0 C :    0.000107
   1 O :    0.000002
   2 H :    0.000001
   3 H :   -0.000051
   4 H :   -0.000076
   5 H :   -0.000074
   6 C :   -0.168728
   7 O :   -0.487567
   8 H :    0.322501
   9 H :    0.101555
  10 H :    0.125024
  11 H :    0.107306
Sum of atomic charges:    0.0000000

LOEWDIN ATOMIC CHARGES
----------------------
   0 C :   -0.000426
   1 O :   -0.000003
   2 H :   -0.000001
   3 H :   -0.000037
   4 H :   -0.000050
   5 H :   -0.000164
   6 C :   -0.385263
   7 O :   -0.111959
   8 H :    0.192448
   9 H :    0.098773
  10 H :    0.109669
  11 H :    0.097012

  Mayer bond orders larger than 0.1
B(  6-C ,  7-O ) :   1.0019 B(  6-C ,  9-H ) :   0.9753 B(  6-C , 10-H ) :   0.9685
B(  6-C , 11-H ) :   0.9810 B(  7-O ,  8-H ) :   0.8875

Dispersion correction           -0.000266921
FINAL SINGLE POINT ENERGY      -115.730529410174

DIPOLE MOMENT
-------------
                                X             Y             Z
Electronic contribution:     -1.71494      -0.43111       0.52098
Nuclear contribution   :      2.14912      -0.00455      -0.82961
                        -----------------------------------------
Total Dipole Moment    :      0.43418      -0.43566      -0.30863
                        -----------------------------------------
Magnitude (a.u.)       :      0.68816
Magnitude (Debye)      :      1.74916

Rotational constants in cm-1:     4.211165     0.808867     0.772183
Rotational constants in MHz : 126247.545726 24249.211844 23149.458577

                             ****ORCA TERMINATED NORMALLY****
TOTAL RUN TIME: 0 days 0 hours 0 minutes 41 seconds 497 msec
