                         Program Version 4.1.2  - RELEASE  -
|  1> #Run DFT-D3 single point of the dimer
|  2> ! wB97X-D3 def2-TZVP TIGHTSCF CHELPG PMODEL PAL8
|  3>
|  4> %base "22-133_DFT_AB"
|  5>
|  6> %scf
|  7> MaxIter 1000
|  8> end
|  9>
| 10> * xyz 0 1
| 11>   C                      -9.854973            0.199510             8.305999
| 12>   O                      -11.049584           0.926030             8.206621
| 13>   H                      -11.210911           1.208514             7.307771
| 14>   H                      -9.345512            0.270205             9.273094
| 15>   H                      -9.925177            -0.857745            8.073375
| 16>   H                      -9.164374            0.696290             7.560316
| 17>   C                      -10.646409           4.650670             8.087570
| 18>   O                      -10.370866           4.493579             6.619864
| 19>   H                      -10.797936           5.257748             6.260719
| 20>   H                      -9.797403            5.107603             8.575869
| 21>   H                      -11.576639           5.126904             8.417608
| 22>   H                      -10.649536           3.713750             8.608090
| 23> *
| 24>
| 25> #Run DFT-D3 single point of the molecule with dimer basis set
| 26> $new_job
| 27> %base "22-133_DFT_A"
| 28> ! wB97X-D3 def2-TZVP TIGHTSCF CHELPG PMODEL
| 29>
| 30> %scf
| 31> MaxIter 1000
| 32> end
| 33>
| 34> * xyz 0 1
| 35>   C                      -9.854973            0.199510             8.305999
| 36>   O                      -11.049584           0.926030             8.206621
| 37>   H                      -11.210911           1.208514             7.307771
| 38>   H                      -9.345512            0.270205             9.273094
| 39>   H                      -9.925177            -0.857745            8.073375
| 40>   H                      -9.164374            0.696290             7.560316
| 41>   C                    : -10.646409           4.650670             8.087570
| 42>   O                    : -10.370866           4.493579             6.619864
| 43>   H                    : -10.797936           5.257748             6.260719
| 44>   H                    : -9.797403            5.107603             8.575869
| 45>   H                    : -11.576639           5.126904             8.417608
| 46>   H                    : -10.649536           3.713750             8.608090
| 47> *
| 48>
| 49> #Run DFT-D3 single point of the particle with dimer basis set
| 50> $new_job
| 51> %base "22-133_DFT_B"
| 52> ! wB97X-D3 def2-TZVP TIGHTSCF CHELPG PMODEL
| 53>
| 54> %scf
| 55> MaxIter 1000
| 56> end
| 57>
| 58> * xyz 0 1
| 59>   C                    : -9.854973            0.199510             8.305999
| 60>   O                    : -11.049584           0.926030             8.206621
| 61>   H                    : -11.210911           1.208514             7.307771
| 62>   H                    : -9.345512            0.270205             9.273094
| 63>   H                    : -9.925177            -0.857745            8.073375
| 64>   H                    : -9.164374            0.696290             7.560316
| 65>   C                      -10.646409           4.650670             8.087570
| 66>   O                      -10.370866           4.493579             6.619864
| 67>   H                      -10.797936           5.257748             6.260719
| 68>   H                      -9.797403            5.107603             8.575869
| 69>   H                      -11.576639           5.126904             8.417608
| 70>   H                      -10.649536           3.713750             8.608090
| 71> *
| 72>
| 73>                          ****END OF INPUT****
 Total Charge           Charge          ....    0
 Multiplicity           Mult            ....    1
 Number of Electrons    NEL             ....   36
Dispersion correction           -0.001550055
FINAL SINGLE POINT ENERGY      -231.461011016588
Dispersion correction           -0.000244994
FINAL SINGLE POINT ENERGY      -115.731986434612

CARTESIAN COORDINATES (ANGSTROEM)
---------------------------------
  C     -9.854973    0.199510    8.305999
  O    -11.049584    0.926030    8.206621
  H    -11.210911    1.208514    7.307771
  H     -9.345512    0.270205    9.273094
  H     -9.925177   -0.857745    8.073375
  H     -9.164374    0.696290    7.560316
  C    -10.646409    4.650670    8.087570
  O    -10.370866    4.493579    6.619864
  H    -10.797936    5.257748    6.260719
  H     -9.797403    5.107603    8.575869
  H    -11.576639    5.126904    8.417608
  H    -10.649536    3.713750    8.608090

 Multiplicity           Mult            ....    1
 Number of Electrons    NEL             ....   18
 Basis Dimension        Dim             ....  172

ORBITAL ENERGIES
----------------

  NO   OCC          E(Eh)            E(eV)
   0   2.0000     -19.235488      -523.4242
   1   2.0000     -10.316650      -280.7303
   2   2.0000      -1.120432       -30.4885
   3   2.0000      -0.805557       -21.9203
   4   2.0000      -0.597360       -16.2550
   5   2.0000      -0.531533       -14.4637
   6   2.0000      -0.518517       -14.1096
   7   2.0000      -0.449705       -12.2371
   8   2.0000      -0.379131       -10.3167
   9   0.0000       0.089703         2.4410
  10   0.0000       0.121694         3.3115
  11   0.0000       0.143062         3.8929
  12   0.0000       0.173559         4.7228
  13   0.0000       0.189486         5.1562

MULLIKEN ATOMIC CHARGES
-----------------------
   0 C :    0.000344
   1 O :    0.000471
   2 H :   -0.000500
   3 H :   -0.000197
   4 H :    0.000016
   5 H :   -0.000223
   6 C :   -0.211153
   7 O :   -0.464301
   8 H :    0.311035
   9 H :    0.120653
  10 H :    0.120585
  11 H :    0.123271
Sum of atomic charges:   -0.0000000

LOEWDIN ATOMIC CHARGES
----------------------
   0 C :   -0.000830
   1 O :   -0.001637
   2 H :   -0.001179
   3 H :   -0.000075
   4 H :   -0.000011
   5 H :   -0.000103
   6 C :   -0.336561
   7 O :   -0.118999
   8 H :    0.156086
   9 H :    0.098882
  10 H :    0.101129
  11 H :    0.103300

  Mayer bond orders larger than 0.1
B(  6-C ,  7-O ) :   1.0061 B(  6-C ,  9-H ) :   0.9805 B(  6-C , 10-H ) :   0.9693
B(  6-C , 11-H ) :   0.9763 B(  7-O ,  8-H ) :   0.9077

Dispersion correction           -0.000294832
FINAL SINGLE POINT ENERGY      -115.725652264149

DIPOLE MOMENT
-------------
                                X             Y             Z
Electronic contribution:      0.32736      -0.26552      -1.92055
Nuclear contribution   :     -0.70760       0.78771       2.33930
                        -----------------------------------------
Total Dipole Moment    :     -0.38024       0.52219       0.41875
                        -----------------------------------------
Magnitude (a.u.)       :      0.76982
Magnitude (Debye)      :      1.95672

Rotational constants in cm-1:     4.513027     0.749358     0.722281
Rotational constants in MHz : 135297.134679 22465.179598 21653.431087

                             ****ORCA TERMINATED NORMALLY****
TOTAL RUN TIME: 0 days 0 hours 0 minutes 58 seconds 383 msec
