                         Program Version 4.1.2  - RELEASE  -
|  1> #Run DFT-D3 single point of the dimer
|  2> ! wB97X-D3 def2-TZVP TIGHTSCF CHELPG PMODEL PAL8
|  3>
|  4> %base "17-80_DFT_AB"
|  5>
|  6> %scf
|  7> MaxIter 1000
|  8> end
|  9>
| 10> * xyz 0 1
| 11>   C                      -1.143472            3.251015             -8.383428
| 12>   O                      -1.942154            2.903486             -9.464382
| 13>   H                      -1.698939            3.509440             -10.183064
| 14>   H                      -1.426148            2.504044             -7.571571
| 15>   H                      -0.084644            3.152513             -8.594473
| 16>   H                      -1.392792            4.268874             -8.070492
| 17>   C                      0.647769             0.124529             -6.481577
| 18>   O                      -0.226637            -0.471103            -5.579255
| 19>   H                      -1.142298            -0.269324            -5.796997
| 20>   H                      0.812610             1.142135             -6.183510
| 21>   H                      1.646017             -0.430610            -6.555215
| 22>   H                      0.176068             0.014633             -7.407592
| 23> *
| 24>
| 25> #Run DFT-D3 single point of the molecule with dimer basis set
| 26> $new_job
| 27> %base "17-80_DFT_A"
| 28> ! wB97X-D3 def2-TZVP TIGHTSCF CHELPG PMODEL
| 29>
| 30> %scf
| 31> MaxIter 1000
| 32> end
| 33>
| 34> * xyz 0 1
| 35>   C                      -1.143472            3.251015             -8.383428
| 36>   O                      -1.942154            2.903486             -9.464382
| 37>   H                      -1.698939            3.509440             -10.183064
| 38>   H                      -1.426148            2.504044             -7.571571
| 39>   H                      -0.084644            3.152513             -8.594473
| 40>   H                      -1.392792            4.268874             -8.070492
| 41>   C                    : 0.647769             0.124529             -6.481577
| 42>   O                    : -0.226637            -0.471103            -5.579255
| 43>   H                    : -1.142298            -0.269324            -5.796997
| 44>   H                    : 0.812610             1.142135             -6.183510
| 45>   H                    : 1.646017             -0.430610            -6.555215
| 46>   H                    : 0.176068             0.014633             -7.407592
| 47> *
| 48>
| 49> #Run DFT-D3 single point of the particle with dimer basis set
| 50> $new_job
| 51> %base "17-80_DFT_B"
| 52> ! wB97X-D3 def2-TZVP TIGHTSCF CHELPG PMODEL
| 53>
| 54> %scf
| 55> MaxIter 1000
| 56> end
| 57>
| 58> * xyz 0 1
| 59>   C                    : -1.143472            3.251015             -8.383428
| 60>   O                    : -1.942154            2.903486             -9.464382
| 61>   H                    : -1.698939            3.509440             -10.183064
| 62>   H                    : -1.426148            2.504044             -7.571571
| 63>   H                    : -0.084644            3.152513             -8.594473
| 64>   H                    : -1.392792            4.268874             -8.070492
| 65>   C                      0.647769             0.124529             -6.481577
| 66>   O                      -0.226637            -0.471103            -5.579255
| 67>   H                      -1.142298            -0.269324            -5.796997
| 68>   H                      0.812610             1.142135             -6.183510
| 69>   H                      1.646017             -0.430610            -6.555215
| 70>   H                      0.176068             0.014633             -7.407592
| 71> *
| 72>
| 73>                          ****END OF INPUT****
 Total Charge           Charge          ....    0
 Multiplicity           Mult            ....    1
 Number of Electrons    NEL             ....   36
Dispersion correction           -0.001381505
FINAL SINGLE POINT ENERGY      -231.464484720710
Dispersion correction           -0.000216689
FINAL SINGLE POINT ENERGY      -115.734440835670

CARTESIAN COORDINATES (ANGSTROEM)
---------------------------------
  C     -1.143472    3.251015   -8.383428
  O     -1.942154    2.903486   -9.464382
  H     -1.698939    3.509440  -10.183064
  H     -1.426148    2.504044   -7.571571
  H     -0.084644    3.152513   -8.594473
  H     -1.392792    4.268874   -8.070492
  C      0.647769    0.124529   -6.481577
  O     -0.226637   -0.471103   -5.579255
  H     -1.142298   -0.269324   -5.796997
  H      0.812610    1.142135   -6.183510
  H      1.646017   -0.430610   -6.555215
  H      0.176068    0.014633   -7.407592

 Multiplicity           Mult            ....    1
 Number of Electrons    NEL             ....   18
 Basis Dimension        Dim             ....  172

ORBITAL ENERGIES
----------------

  NO   OCC          E(Eh)            E(eV)
   0   2.0000     -19.223103      -523.0872
   1   2.0000     -10.308141      -280.4988
   2   2.0000      -1.139512       -31.0077
   3   2.0000      -0.794220       -21.6118
   4   2.0000      -0.612075       -16.6554
   5   2.0000      -0.557213       -15.1625
   6   2.0000      -0.528540       -14.3823
   7   2.0000      -0.419300       -11.4097
   8   2.0000      -0.370678       -10.0867
   9   0.0000       0.078651         2.1402
  10   0.0000       0.115000         3.1293
  11   0.0000       0.151117         4.1121
  12   0.0000       0.170017         4.6264
  13   0.0000       0.188639         5.1331

MULLIKEN ATOMIC CHARGES
-----------------------
   0 C :   -0.002467
   1 O :    0.000057
   2 H :   -0.000005
   3 H :    0.001704
   4 H :   -0.000184
   5 H :    0.000027
   6 C :   -0.146341
   7 O :   -0.485551
   8 H :    0.317630
   9 H :    0.100025
  10 H :    0.111231
  11 H :    0.103874
Sum of atomic charges:   -0.0000000

LOEWDIN ATOMIC CHARGES
----------------------
   0 C :   -0.002148
   1 O :   -0.000011
   2 H :   -0.000003
   3 H :   -0.001132
   4 H :   -0.000623
   5 H :   -0.000014
   6 C :   -0.392361
   7 O :   -0.069446
   8 H :    0.170363
   9 H :    0.091262
  10 H :    0.116870
  11 H :    0.087243

  Mayer bond orders larger than 0.1
B(  6-C ,  7-O ) :   0.9915 B(  6-C ,  9-H ) :   0.9787 B(  6-C , 10-H ) :   0.9671
B(  6-C , 11-H ) :   0.9952 B(  7-O ,  8-H ) :   0.8958

Dispersion correction           -0.000216346
FINAL SINGLE POINT ENERGY      -115.728980754517

DIPOLE MOMENT
-------------
                                X             Y             Z
Electronic contribution:     -0.99137      -0.72122       1.17701
Nuclear contribution   :      0.73143       1.07783      -1.69801
                        -----------------------------------------
Total Dipole Moment    :     -0.25994       0.35662      -0.52099
                        -----------------------------------------
Magnitude (a.u.)       :      0.68277
Magnitude (Debye)      :      1.73547

Rotational constants in cm-1:     4.314413     0.857729     0.831712
Rotational constants in MHz : 129342.835266 25714.078535 24934.090031

                             ****ORCA TERMINATED NORMALLY****
TOTAL RUN TIME: 0 days 0 hours 1 minutes 10 seconds 410 msec
