                         Program Version 4.1.2  - RELEASE  -
|  1> #Run DFT-D3 single point of the dimer
|  2> ! wB97X-D3 def2-TZVP TIGHTSCF CHELPG PMODEL PAL8
|  3>
|  4> %base "17-131_DFT_AB"
|  5>
|  6> %scf
|  7> MaxIter 1000
|  8> end
|  9>
| 10> * xyz 0 1
| 11>   C                      7.325339             5.251497             0.133177
| 12>   O                      6.504811             4.108082             0.081789
| 13>   H                      5.631289             4.365463             -0.281375
| 14>   H                      8.367817             5.088402             0.117534
| 15>   H                      7.009722             5.937494             -0.695289
| 16>   H                      6.979847             5.774637             1.076056
| 17>   C                      10.771608            5.192994             -3.288816
| 18>   O                      9.362997             5.246545             -3.623818
| 19>   H                      8.855624             5.697290             -2.908676
| 20>   H                      10.908281            4.526235             -2.414384
| 21>   H                      11.537811            4.895017             -4.018694
| 22>   H                      11.083453            6.185757             -2.910122
| 23> *
| 24>
| 25> #Run DFT-D3 single point of the molecule with dimer basis set
| 26> $new_job
| 27> %base "17-131_DFT_A"
| 28> ! wB97X-D3 def2-TZVP TIGHTSCF CHELPG PMODEL
| 29>
| 30> %scf
| 31> MaxIter 1000
| 32> end
| 33>
| 34> * xyz 0 1
| 35>   C                      7.325339             5.251497             0.133177
| 36>   O                      6.504811             4.108082             0.081789
| 37>   H                      5.631289             4.365463             -0.281375
| 38>   H                      8.367817             5.088402             0.117534
| 39>   H                      7.009722             5.937494             -0.695289
| 40>   H                      6.979847             5.774637             1.076056
| 41>   C                    : 10.771608            5.192994             -3.288816
| 42>   O                    : 9.362997             5.246545             -3.623818
| 43>   H                    : 8.855624             5.697290             -2.908676
| 44>   H                    : 10.908281            4.526235             -2.414384
| 45>   H                    : 11.537811            4.895017             -4.018694
| 46>   H                    : 11.083453            6.185757             -2.910122
| 47> *
| 48>
| 49> #Run DFT-D3 single point of the particle with dimer basis set
| 50> $new_job
| 51> %base "17-131_DFT_B"
| 52> ! wB97X-D3 def2-TZVP TIGHTSCF CHELPG PMODEL
| 53>
| 54> %scf
| 55> MaxIter 1000
| 56> end
| 57>
| 58> * xyz 0 1
| 59>   C                    : 7.325339             5.251497             0.133177
| 60>   O                    : 6.504811             4.108082             0.081789
| 61>   H                    : 5.631289             4.365463             -0.281375
| 62>   H                    : 8.367817             5.088402             0.117534
| 63>   H                    : 7.009722             5.937494             -0.695289
| 64>   H                    : 6.979847             5.774637             1.076056
| 65>   C                      10.771608            5.192994             -3.288816
| 66>   O                      9.362997             5.246545             -3.623818
| 67>   H                      8.855624             5.697290             -2.908676
| 68>   H                      10.908281            4.526235             -2.414384
| 69>   H                      11.537811            4.895017             -4.018694
| 70>   H                      11.083453            6.185757             -2.910122
| 71> *
| 72>
| 73>                          ****END OF INPUT****
 Total Charge           Charge          ....    0
 Multiplicity           Mult            ....    1
 Number of Electrons    NEL             ....   36
Dispersion correction           -0.001176482
FINAL SINGLE POINT ENERGY      -231.455722689420
Dispersion correction           -0.000221473
FINAL SINGLE POINT ENERGY      -115.728214051923

CARTESIAN COORDINATES (ANGSTROEM)
---------------------------------
  C      7.325339    5.251497    0.133177
  O      6.504811    4.108082    0.081789
  H      5.631289    4.365463   -0.281375
  H      8.367817    5.088402    0.117534
  H      7.009722    5.937494   -0.695289
  H      6.979847    5.774637    1.076056
  C     10.771608    5.192994   -3.288816
  O      9.362997    5.246545   -3.623818
  H      8.855624    5.697290   -2.908676
  H     10.908281    4.526235   -2.414384
  H     11.537811    4.895017   -4.018694
  H     11.083453    6.185757   -2.910122

 Multiplicity           Mult            ....    1
 Number of Electrons    NEL             ....   18
 Basis Dimension        Dim             ....  172

ORBITAL ENERGIES
----------------

  NO   OCC          E(Eh)            E(eV)
   0   2.0000     -19.232706      -523.3485
   1   2.0000     -10.321473      -280.8616
   2   2.0000      -1.120224       -30.4828
   3   2.0000      -0.795091       -21.6355
   4   2.0000      -0.602248       -16.3880
   5   2.0000      -0.533419       -14.5151
   6   2.0000      -0.529480       -14.4079
   7   2.0000      -0.427765       -11.6401
   8   2.0000      -0.370916       -10.0931
   9   0.0000       0.072177         1.9640
  10   0.0000       0.120430         3.2771
  11   0.0000       0.141040         3.8379
  12   0.0000       0.168584         4.5874
  13   0.0000       0.180498         4.9116

MULLIKEN ATOMIC CHARGES
-----------------------
   0 C :   -0.002305
   1 O :    0.000186
   2 H :    0.000020
   3 H :    0.000072
   4 H :    0.000047
   5 H :   -0.000115
   6 C :   -0.178753
   7 O :   -0.488120
   8 H :    0.324026
   9 H :    0.106537
  10 H :    0.135506
  11 H :    0.102898
Sum of atomic charges:   -0.0000000

LOEWDIN ATOMIC CHARGES
----------------------
   0 C :   -0.001902
   1 O :   -0.000011
   2 H :   -0.000002
   3 H :   -0.000377
   4 H :   -0.000671
   5 H :   -0.000046
   6 C :   -0.369847
   7 O :   -0.116412
   8 H :    0.183771
   9 H :    0.097364
  10 H :    0.110961
  11 H :    0.097174

  Mayer bond orders larger than 0.1
B(  6-C ,  7-O ) :   0.9866 B(  6-C ,  9-H ) :   0.9770 B(  6-C , 10-H ) :   0.9659
B(  6-C , 11-H ) :   0.9843 B(  7-O ,  8-H ) :   0.8896

Dispersion correction           -0.000266666
FINAL SINGLE POINT ENERGY      -115.727237497416

DIPOLE MOMENT
-------------
                                X             Y             Z
Electronic contribution:     -1.76712      -0.06706      -0.77453
Nuclear contribution   :      2.05420       0.33638       1.36571
                        -----------------------------------------
Total Dipole Moment    :      0.28708       0.26931       0.59117
                        -----------------------------------------
Magnitude (a.u.)       :      0.71023
Magnitude (Debye)      :      1.80527

Rotational constants in cm-1:     4.372212     0.783523     0.755518
Rotational constants in MHz : 131075.608135 23489.430703 22649.870061

                             ****ORCA TERMINATED NORMALLY****
TOTAL RUN TIME: 0 days 0 hours 1 minutes 8 seconds 526 msec
