                         Program Version 4.1.2  - RELEASE  -
|  1> #Run DFT-D3 single point of the dimer
|  2> ! wB97X-D3 def2-TZVP TIGHTSCF CHELPG PMODEL PAL8
|  3>
|  4> %base "22-130_DFT_AB"
|  5>
|  6> %scf
|  7> MaxIter 1000
|  8> end
|  9>
| 10> * xyz 0 1
| 11>   C                      -0.749633            2.416253             -3.313901
| 12>   O                      -0.861180            1.452458             -2.250456
| 13>   H                      0.018248             1.215378             -2.084135
| 14>   H                      -1.723585            2.657808             -3.810069
| 15>   H                      -0.325219            3.272619             -2.879507
| 16>   H                      -0.054227            2.091398             -4.053934
| 17>   C                      0.159550             -0.695446            -5.283339
| 18>   O                      1.357969             0.049257             -5.214653
| 19>   H                      1.669129             -0.184117            -4.308228
| 20>   H                      0.216482             -1.496743            -6.077616
| 21>   H                      -0.113872            -1.182281            -4.345292
| 22>   H                      -0.685406            -0.138870            -5.644733
| 23> *
| 24>
| 25> #Run DFT-D3 single point of the molecule with dimer basis set
| 26> $new_job
| 27> %base "22-130_DFT_A"
| 28> ! wB97X-D3 def2-TZVP TIGHTSCF CHELPG PMODEL
| 29>
| 30> %scf
| 31> MaxIter 1000
| 32> end
| 33>
| 34> * xyz 0 1
| 35>   C                      -0.749633            2.416253             -3.313901
| 36>   O                      -0.861180            1.452458             -2.250456
| 37>   H                      0.018248             1.215378             -2.084135
| 38>   H                      -1.723585            2.657808             -3.810069
| 39>   H                      -0.325219            3.272619             -2.879507
| 40>   H                      -0.054227            2.091398             -4.053934
| 41>   C                    : 0.159550             -0.695446            -5.283339
| 42>   O                    : 1.357969             0.049257             -5.214653
| 43>   H                    : 1.669129             -0.184117            -4.308228
| 44>   H                    : 0.216482             -1.496743            -6.077616
| 45>   H                    : -0.113872            -1.182281            -4.345292
| 46>   H                    : -0.685406            -0.138870            -5.644733
| 47> *
| 48>
| 49> #Run DFT-D3 single point of the particle with dimer basis set
| 50> $new_job
| 51> %base "22-130_DFT_B"
| 52> ! wB97X-D3 def2-TZVP TIGHTSCF CHELPG PMODEL
| 53>
| 54> %scf
| 55> MaxIter 1000
| 56> end
| 57>
| 58> * xyz 0 1
| 59>   C                    : -0.749633            2.416253             -3.313901
| 60>   O                    : -0.861180            1.452458             -2.250456
| 61>   H                    : 0.018248             1.215378             -2.084135
| 62>   H                    : -1.723585            2.657808             -3.810069
| 63>   H                    : -0.325219            3.272619             -2.879507
| 64>   H                    : -0.054227            2.091398             -4.053934
| 65>   C                      0.159550             -0.695446            -5.283339
| 66>   O                      1.357969             0.049257             -5.214653
| 67>   H                      1.669129             -0.184117            -4.308228
| 68>   H                      0.216482             -1.496743            -6.077616
| 69>   H                      -0.113872            -1.182281            -4.345292
| 70>   H                      -0.685406            -0.138870            -5.644733
| 71> *
| 72>
| 73>                          ****END OF INPUT****
 Total Charge           Charge          ....    0
 Multiplicity           Mult            ....    1
 Number of Electrons    NEL             ....   36
Dispersion correction           -0.002109653
FINAL SINGLE POINT ENERGY      -231.463384108225
Dispersion correction           -0.000216039
FINAL SINGLE POINT ENERGY      -115.730439182994

CARTESIAN COORDINATES (ANGSTROEM)
---------------------------------
  C     -0.749633    2.416253   -3.313901
  O     -0.861180    1.452458   -2.250456
  H      0.018248    1.215378   -2.084135
  H     -1.723585    2.657808   -3.810069
  H     -0.325219    3.272619   -2.879507
  H     -0.054227    2.091398   -4.053934
  C      0.159550   -0.695446   -5.283339
  O      1.357969    0.049257   -5.214653
  H      1.669129   -0.184117   -4.308228
  H      0.216482   -1.496743   -6.077616
  H     -0.113872   -1.182281   -4.345292
  H     -0.685406   -0.138870   -5.644733

 Multiplicity           Mult            ....    1
 Number of Electrons    NEL             ....   18
 Basis Dimension        Dim             ....  172

ORBITAL ENERGIES
----------------

  NO   OCC          E(Eh)            E(eV)
   0   2.0000     -19.238829      -523.5151
   1   2.0000     -10.314684      -280.6768
   2   2.0000      -1.138922       -30.9916
   3   2.0000      -0.792026       -21.5521
   4   2.0000      -0.612391       -16.6640
   5   2.0000      -0.535387       -14.5686
   6   2.0000      -0.527511       -14.3543
   7   2.0000      -0.446029       -12.1371
   8   2.0000      -0.371080       -10.0976
   9   0.0000       0.080920         2.2019
  10   0.0000       0.122824         3.3422
  11   0.0000       0.148251         4.0341
  12   0.0000       0.165712         4.5093
  13   0.0000       0.197941         5.3862

MULLIKEN ATOMIC CHARGES
-----------------------
   0 C :    0.002134
   1 O :    0.000187
   2 H :   -0.001247
   3 H :   -0.000232
   4 H :    0.000022
   5 H :   -0.007795
   6 C :   -0.191276
   7 O :   -0.455722
   8 H :    0.321767
   9 H :    0.105712
  10 H :    0.108436
  11 H :    0.118013
Sum of atomic charges:   -0.0000000

LOEWDIN ATOMIC CHARGES
----------------------
   0 C :   -0.004136
   1 O :   -0.000211
   2 H :   -0.000771
   3 H :   -0.000125
   4 H :   -0.000016
   5 H :   -0.007621
   6 C :   -0.400657
   7 O :   -0.076398
   8 H :    0.191818
   9 H :    0.104117
  10 H :    0.096431
  11 H :    0.097569

  Mayer bond orders larger than 0.1
B(  6-C ,  7-O ) :   1.0065 B(  6-C ,  9-H ) :   0.9763 B(  6-C , 10-H ) :   0.9845
B(  6-C , 11-H ) :   0.9788 B(  7-O ,  8-H ) :   0.8973

Dispersion correction           -0.000250624
FINAL SINGLE POINT ENERGY      -115.730762426642

DIPOLE MOMENT
-------------
                                X             Y             Z
Electronic contribution:      1.60092       1.14515       0.04799
Nuclear contribution   :     -1.86938      -1.57040       0.49269
                        -----------------------------------------
Total Dipole Moment    :     -0.26846      -0.42525       0.54067
                        -----------------------------------------
Magnitude (a.u.)       :      0.73840
Magnitude (Debye)      :      1.87688

Rotational constants in cm-1:     4.270335     0.834591     0.793069
Rotational constants in MHz : 128021.410084 25020.418283 23775.598464

                             ****ORCA TERMINATED NORMALLY****
TOTAL RUN TIME: 0 days 0 hours 1 minutes 4 seconds 406 msec
