                         Program Version 4.1.2  - RELEASE  -
|  1> #Run DFT-D3 single point of the dimer
|  2> ! wB97X-D3 def2-TZVP TIGHTSCF CHELPG PMODEL PAL8
|  3>
|  4> %base "18-28_DFT_AB"
|  5>
|  6> %scf
|  7> MaxIter 1000
|  8> end
|  9>
| 10> * xyz 0 1
| 11>   C                      -5.176520            -0.642955            5.468790
| 12>   O                      -4.038877            -1.295501            5.945422
| 13>   H                      -4.126203            -2.205438            5.650035
| 14>   H                      -5.286508            -0.774904            4.375683
| 15>   H                      -6.105946            -0.911018            5.899308
| 16>   H                      -5.090722            0.414521             5.747167
| 17>   C                      -8.750132            -3.209529            5.758697
| 18>   O                      -8.636252            -2.800862            7.090331
| 19>   H                      -8.941399            -1.901998            7.252660
| 20>   H                      -8.567142            -2.361493            5.074690
| 21>   H                      -7.992713            -4.009149            5.610206
| 22>   H                      -9.785928            -3.549334            5.647904
| 23> *
| 24>
| 25> #Run DFT-D3 single point of the molecule with dimer basis set
| 26> $new_job
| 27> %base "18-28_DFT_A"
| 28> ! wB97X-D3 def2-TZVP TIGHTSCF CHELPG PMODEL
| 29>
| 30> %scf
| 31> MaxIter 1000
| 32> end
| 33>
| 34> * xyz 0 1
| 35>   C                      -5.176520            -0.642955            5.468790
| 36>   O                      -4.038877            -1.295501            5.945422
| 37>   H                      -4.126203            -2.205438            5.650035
| 38>   H                      -5.286508            -0.774904            4.375683
| 39>   H                      -6.105946            -0.911018            5.899308
| 40>   H                      -5.090722            0.414521             5.747167
| 41>   C                    : -8.750132            -3.209529            5.758697
| 42>   O                    : -8.636252            -2.800862            7.090331
| 43>   H                    : -8.941399            -1.901998            7.252660
| 44>   H                    : -8.567142            -2.361493            5.074690
| 45>   H                    : -7.992713            -4.009149            5.610206
| 46>   H                    : -9.785928            -3.549334            5.647904
| 47> *
| 48>
| 49> #Run DFT-D3 single point of the particle with dimer basis set
| 50> $new_job
| 51> %base "18-28_DFT_B"
| 52> ! wB97X-D3 def2-TZVP TIGHTSCF CHELPG PMODEL
| 53>
| 54> %scf
| 55> MaxIter 1000
| 56> end
| 57>
| 58> * xyz 0 1
| 59>   C                    : -5.176520            -0.642955            5.468790
| 60>   O                    : -4.038877            -1.295501            5.945422
| 61>   H                    : -4.126203            -2.205438            5.650035
| 62>   H                    : -5.286508            -0.774904            4.375683
| 63>   H                    : -6.105946            -0.911018            5.899308
| 64>   H                    : -5.090722            0.414521             5.747167
| 65>   C                      -8.750132            -3.209529            5.758697
| 66>   O                      -8.636252            -2.800862            7.090331
| 67>   H                      -8.941399            -1.901998            7.252660
| 68>   H                      -8.567142            -2.361493            5.074690
| 69>   H                      -7.992713            -4.009149            5.610206
| 70>   H                      -9.785928            -3.549334            5.647904
| 71> *
| 72>
| 73>                          ****END OF INPUT****
 Total Charge           Charge          ....    0
 Multiplicity           Mult            ....    1
 Number of Electrons    NEL             ....   36
Dispersion correction           -0.001265250
FINAL SINGLE POINT ENERGY      -231.468563035936
Dispersion correction           -0.000229559
FINAL SINGLE POINT ENERGY      -115.734117906856

CARTESIAN COORDINATES (ANGSTROEM)
---------------------------------
  C     -5.176520   -0.642955    5.468790
  O     -4.038877   -1.295501    5.945422
  H     -4.126203   -2.205438    5.650035
  H     -5.286508   -0.774904    4.375683
  H     -6.105946   -0.911018    5.899308
  H     -5.090722    0.414521    5.747167
  C     -8.750132   -3.209529    5.758697
  O     -8.636252   -2.800862    7.090331
  H     -8.941399   -1.901998    7.252660
  H     -8.567142   -2.361493    5.074690
  H     -7.992713   -4.009149    5.610206
  H     -9.785928   -3.549334    5.647904

 Multiplicity           Mult            ....    1
 Number of Electrons    NEL             ....   18
 Basis Dimension        Dim             ....  172

ORBITAL ENERGIES
----------------

  NO   OCC          E(Eh)            E(eV)
   0   2.0000     -19.223407      -523.0955
   1   2.0000     -10.314846      -280.6812
   2   2.0000      -1.135448       -30.8971
   3   2.0000      -0.792483       -21.5646
   4   2.0000      -0.611038       -16.6272
   5   2.0000      -0.547080       -14.8868
   6   2.0000      -0.526012       -14.3135
   7   2.0000      -0.424713       -11.5570
   8   2.0000      -0.367938       -10.0121
   9   0.0000       0.083848         2.2816
  10   0.0000       0.120218         3.2713
  11   0.0000       0.155260         4.2248
  12   0.0000       0.163715         4.4549
  13   0.0000       0.190822         5.1925

MULLIKEN ATOMIC CHARGES
-----------------------
   0 C :    0.002668
   1 O :   -0.000029
   2 H :   -0.000056
   3 H :   -0.000133
   4 H :   -0.006056
   5 H :   -0.000088
   6 C :   -0.145088
   7 O :   -0.493451
   8 H :    0.316543
   9 H :    0.101290
  10 H :    0.117678
  11 H :    0.106723
Sum of atomic charges:   -0.0000000

LOEWDIN ATOMIC CHARGES
----------------------
   0 C :   -0.000691
   1 O :   -0.000015
   2 H :   -0.000010
   3 H :   -0.000089
   4 H :   -0.002161
   5 H :   -0.000003
   6 C :   -0.393153
   7 O :   -0.076780
   8 H :    0.167536
   9 H :    0.095678
  10 H :    0.112825
  11 H :    0.096865

  Mayer bond orders larger than 0.1
B(  6-C ,  7-O ) :   0.9745 B(  6-C ,  9-H ) :   0.9802 B(  6-C , 10-H ) :   0.9719
B(  6-C , 11-H ) :   0.9821 B(  7-O ,  8-H ) :   0.8944

Dispersion correction           -0.000230873
FINAL SINGLE POINT ENERGY      -115.733736901619

DIPOLE MOMENT
-------------
                                X             Y             Z
Electronic contribution:      0.20522       0.36194       1.61094
Nuclear contribution   :     -0.44750       0.07016      -2.03396
                        -----------------------------------------
Total Dipole Moment    :     -0.24228       0.43211      -0.42302
                        -----------------------------------------
Magnitude (a.u.)       :      0.65143
Magnitude (Debye)      :      1.65581

Rotational constants in cm-1:     4.157616     0.852434     0.821664
Rotational constants in MHz : 124642.195152 25555.327187 24632.852777

                             ****ORCA TERMINATED NORMALLY****
TOTAL RUN TIME: 0 days 0 hours 1 minutes 1 seconds 431 msec
