                         Program Version 4.1.2  - RELEASE  -
|  1> #Run DFT-D3 single point of the dimer
|  2> ! wB97X-D3 def2-TZVP TIGHTSCF CHELPG PMODEL PAL8
|  3>
|  4> %base "16-48_DFT_AB"
|  5>
|  6> %scf
|  7> MaxIter 1000
|  8> end
|  9>
| 10> * xyz 0 1
| 11>   C                      3.918612             -5.045741            2.896027
| 12>   O                      4.275113             -3.748419            2.773380
| 13>   H                      5.177996             -3.619790            2.820687
| 14>   H                      3.911424             -5.560728            1.980114
| 15>   H                      4.669848             -5.508734            3.468600
| 16>   H                      2.869578             -5.280809            3.312576
| 17>   C                      -0.641262            -3.997556            3.460501
| 18>   O                      -1.289227            -3.611036            2.241810
| 19>   H                      -2.235809            -3.829308            2.249596
| 20>   H                      -0.552726            -5.112312            3.504210
| 21>   H                      0.331831             -3.481780            3.610580
| 22>   H                      -1.286851            -3.741639            4.301010
| 23> *
| 24>
| 25> #Run DFT-D3 single point of the molecule with dimer basis set
| 26> $new_job
| 27> %base "16-48_DFT_A"
| 28> ! wB97X-D3 def2-TZVP TIGHTSCF CHELPG PMODEL
| 29>
| 30> %scf
| 31> MaxIter 1000
| 32> end
| 33>
| 34> * xyz 0 1
| 35>   C                      3.918612             -5.045741            2.896027
| 36>   O                      4.275113             -3.748419            2.773380
| 37>   H                      5.177996             -3.619790            2.820687
| 38>   H                      3.911424             -5.560728            1.980114
| 39>   H                      4.669848             -5.508734            3.468600
| 40>   H                      2.869578             -5.280809            3.312576
| 41>   C                    : -0.641262            -3.997556            3.460501
| 42>   O                    : -1.289227            -3.611036            2.241810
| 43>   H                    : -2.235809            -3.829308            2.249596
| 44>   H                    : -0.552726            -5.112312            3.504210
| 45>   H                    : 0.331831             -3.481780            3.610580
| 46>   H                    : -1.286851            -3.741639            4.301010
| 47> *
| 48>
| 49> #Run DFT-D3 single point of the particle with dimer basis set
| 50> $new_job
| 51> %base "16-48_DFT_B"
| 52> ! wB97X-D3 def2-TZVP TIGHTSCF CHELPG PMODEL
| 53>
| 54> %scf
| 55> MaxIter 1000
| 56> end
| 57>
| 58> * xyz 0 1
| 59>   C                    : 3.918612             -5.045741            2.896027
| 60>   O                    : 4.275113             -3.748419            2.773380
| 61>   H                    : 5.177996             -3.619790            2.820687
| 62>   H                    : 3.911424             -5.560728            1.980114
| 63>   H                    : 4.669848             -5.508734            3.468600
| 64>   H                    : 2.869578             -5.280809            3.312576
| 65>   C                      -0.641262            -3.997556            3.460501
| 66>   O                      -1.289227            -3.611036            2.241810
| 67>   H                      -2.235809            -3.829308            2.249596
| 68>   H                      -0.552726            -5.112312            3.504210
| 69>   H                      0.331831             -3.481780            3.610580
| 70>   H                      -1.286851            -3.741639            4.301010
| 71> *
| 72>
| 73>                          ****END OF INPUT****
 Total Charge           Charge          ....    0
 Multiplicity           Mult            ....    1
 Number of Electrons    NEL             ....   36
Dispersion correction           -0.000950074
FINAL SINGLE POINT ENERGY      -231.455809180783
Dispersion correction           -0.000218031
FINAL SINGLE POINT ENERGY      -115.721984199832

CARTESIAN COORDINATES (ANGSTROEM)
---------------------------------
  C      3.918612   -5.045741    2.896027
  O      4.275113   -3.748419    2.773380
  H      5.177996   -3.619790    2.820687
  H      3.911424   -5.560728    1.980114
  H      4.669848   -5.508734    3.468600
  H      2.869578   -5.280809    3.312576
  C     -0.641262   -3.997556    3.460501
  O     -1.289227   -3.611036    2.241810
  H     -2.235809   -3.829308    2.249596
  H     -0.552726   -5.112312    3.504210
  H      0.331831   -3.481780    3.610580
  H     -1.286851   -3.741639    4.301010

 Multiplicity           Mult            ....    1
 Number of Electrons    NEL             ....   18
 Basis Dimension        Dim             ....  172

ORBITAL ENERGIES
----------------

  NO   OCC          E(Eh)            E(eV)
   0   2.0000     -19.227846      -523.2163
   1   2.0000     -10.319571      -280.8098
   2   2.0000      -1.124881       -30.6096
   3   2.0000      -0.793049       -21.5800
   4   2.0000      -0.606579       -16.5058
   5   2.0000      -0.536173       -14.5900
   6   2.0000      -0.525680       -14.3045
   7   2.0000      -0.429112       -11.6767
   8   2.0000      -0.370303       -10.0765
   9   0.0000       0.087741         2.3876
  10   0.0000       0.113960         3.1010
  11   0.0000       0.144838         3.9413
  12   0.0000       0.168059         4.5731
  13   0.0000       0.189589         5.1590

MULLIKEN ATOMIC CHARGES
-----------------------
   0 C :    0.000345
   1 O :   -0.000018
   2 H :   -0.000001
   3 H :   -0.000055
   4 H :    0.000002
   5 H :   -0.000727
   6 C :   -0.162604
   7 O :   -0.488758
   8 H :    0.317973
   9 H :    0.101729
  10 H :    0.125771
  11 H :    0.106343
Sum of atomic charges:   -0.0000000

LOEWDIN ATOMIC CHARGES
----------------------
   0 C :   -0.000325
   1 O :   -0.000018
   2 H :   -0.000001
   3 H :   -0.000006
   4 H :   -0.000002
   5 H :   -0.000706
   6 C :   -0.373958
   7 O :   -0.102758
   8 H :    0.172741
   9 H :    0.098909
  10 H :    0.112572
  11 H :    0.093551

  Mayer bond orders larger than 0.1
B(  6-C ,  7-O ) :   0.9908 B(  6-C ,  9-H ) :   0.9743 B(  6-C , 10-H ) :   0.9677
B(  6-C , 11-H ) :   0.9792 B(  7-O ,  8-H ) :   0.8936

Dispersion correction           -0.000253696
FINAL SINGLE POINT ENERGY      -115.733405147935

DIPOLE MOMENT
-------------
                                X             Y             Z
Electronic contribution:     -0.59519       0.58263      -1.60123
Nuclear contribution   :      0.24337      -0.86468       2.12977
                        -----------------------------------------
Total Dipole Moment    :     -0.35182      -0.28205       0.52855
                        -----------------------------------------
Magnitude (a.u.)       :      0.69476
Magnitude (Debye)      :      1.76593

Rotational constants in cm-1:     4.225944     0.808136     0.777212
Rotational constants in MHz : 126690.618114 24227.306634 23300.230098

                             ****ORCA TERMINATED NORMALLY****
TOTAL RUN TIME: 0 days 0 hours 1 minutes 5 seconds 534 msec
