                         Program Version 4.1.2  - RELEASE  -
|  1> #Run DFT-D3 single point of the dimer
|  2> ! wB97X-D3 def2-TZVP TIGHTSCF CHELPG PMODEL PAL8
|  3>
|  4> %base "14-64_DFT_AB"
|  5>
|  6> %scf
|  7> MaxIter 1000
|  8> end
|  9>
| 10> * xyz 0 1
| 11>   C                      -0.584460            9.833385             -7.370606
| 12>   O                      0.262817             9.973202             -6.259486
| 13>   H                      -0.083268            10.436978            -5.479950
| 14>   H                      -1.227082            10.668618            -7.422794
| 15>   H                      0.023229             9.743565             -8.282138
| 16>   H                      -1.232432            8.935795             -7.342917
| 17>   C                      -0.625806            5.810472             -9.874929
| 18>   O                      0.376086             6.112436             -10.788742
| 19>   H                      0.915324             6.570061             -10.169449
| 20>   H                      -0.324112            5.804178             -8.817376
| 21>   H                      -1.405672            6.594113             -9.918091
| 22>   H                      -1.220156            4.938651             -10.091798
| 23> *
| 24>
| 25> #Run DFT-D3 single point of the molecule with dimer basis set
| 26> $new_job
| 27> %base "14-64_DFT_A"
| 28> ! wB97X-D3 def2-TZVP TIGHTSCF CHELPG PMODEL
| 29>
| 30> %scf
| 31> MaxIter 1000
| 32> end
| 33>
| 34> * xyz 0 1
| 35>   C                      -0.584460            9.833385             -7.370606
| 36>   O                      0.262817             9.973202             -6.259486
| 37>   H                      -0.083268            10.436978            -5.479950
| 38>   H                      -1.227082            10.668618            -7.422794
| 39>   H                      0.023229             9.743565             -8.282138
| 40>   H                      -1.232432            8.935795             -7.342917
| 41>   C                    : -0.625806            5.810472             -9.874929
| 42>   O                    : 0.376086             6.112436             -10.788742
| 43>   H                    : 0.915324             6.570061             -10.169449
| 44>   H                    : -0.324112            5.804178             -8.817376
| 45>   H                    : -1.405672            6.594113             -9.918091
| 46>   H                    : -1.220156            4.938651             -10.091798
| 47> *
| 48>
| 49> #Run DFT-D3 single point of the particle with dimer basis set
| 50> $new_job
| 51> %base "14-64_DFT_B"
| 52> ! wB97X-D3 def2-TZVP TIGHTSCF CHELPG PMODEL
| 53>
| 54> %scf
| 55> MaxIter 1000
| 56> end
| 57>
| 58> * xyz 0 1
| 59>   C                    : -0.584460            9.833385             -7.370606
| 60>   O                    : 0.262817             9.973202             -6.259486
| 61>   H                    : -0.083268            10.436978            -5.479950
| 62>   H                    : -1.227082            10.668618            -7.422794
| 63>   H                    : 0.023229             9.743565             -8.282138
| 64>   H                    : -1.232432            8.935795             -7.342917
| 65>   C                      -0.625806            5.810472             -9.874929
| 66>   O                      0.376086             6.112436             -10.788742
| 67>   H                      0.915324             6.570061             -10.169449
| 68>   H                      -0.324112            5.804178             -8.817376
| 69>   H                      -1.405672            6.594113             -9.918091
| 70>   H                      -1.220156            4.938651             -10.091798
| 71> *
| 72>
| 73>                          ****END OF INPUT****
 Total Charge           Charge          ....    0
 Multiplicity           Mult            ....    1
 Number of Electrons    NEL             ....   36
Dispersion correction           -0.000981269
FINAL SINGLE POINT ENERGY      -231.458917513969
Dispersion correction           -0.000256089
FINAL SINGLE POINT ENERGY      -115.732511692283

CARTESIAN COORDINATES (ANGSTROEM)
---------------------------------
  C     -0.584460    9.833385   -7.370606
  O      0.262817    9.973202   -6.259486
  H     -0.083268   10.436978   -5.479950
  H     -1.227082   10.668618   -7.422794
  H      0.023229    9.743565   -8.282138
  H     -1.232432    8.935795   -7.342917
  C     -0.625806    5.810472   -9.874929
  O      0.376086    6.112436  -10.788742
  H      0.915324    6.570061  -10.169449
  H     -0.324112    5.804178   -8.817376
  H     -1.405672    6.594113   -9.918091
  H     -1.220156    4.938651  -10.091798

 Multiplicity           Mult            ....    1
 Number of Electrons    NEL             ....   18
 Basis Dimension        Dim             ....  172

ORBITAL ENERGIES
----------------

  NO   OCC          E(Eh)            E(eV)
   0   2.0000     -19.235229      -523.4172
   1   2.0000     -10.312429      -280.6155
   2   2.0000      -1.160375       -31.5754
   3   2.0000      -0.793250       -21.5854
   4   2.0000      -0.621680       -16.9168
   5   2.0000      -0.537350       -14.6220
   6   2.0000      -0.535365       -14.5680
   7   2.0000      -0.452006       -12.2997
   8   2.0000      -0.369834       -10.0637
   9   0.0000       0.076816         2.0903
  10   0.0000       0.114499         3.1157
  11   0.0000       0.149109         4.0575
  12   0.0000       0.165406         4.5009
  13   0.0000       0.188988         5.1426

MULLIKEN ATOMIC CHARGES
-----------------------
   0 C :    0.000345
   1 O :   -0.000006
   2 H :   -0.000001
   3 H :    0.000018
   4 H :    0.000002
   5 H :   -0.000797
   6 C :   -0.195613
   7 O :   -0.438836
   8 H :    0.315220
   9 H :    0.105637
  10 H :    0.095678
  11 H :    0.118353
Sum of atomic charges:   -0.0000000

LOEWDIN ATOMIC CHARGES
----------------------
   0 C :   -0.000255
   1 O :   -0.000004
   2 H :   -0.000001
   3 H :   -0.000001
   4 H :   -0.000105
   5 H :   -0.000418
   6 C :   -0.419760
   7 O :   -0.042787
   8 H :    0.168704
   9 H :    0.097465
  10 H :    0.095993
  11 H :    0.101168

  Mayer bond orders larger than 0.1
B(  6-C ,  7-O ) :   1.0088 B(  6-C ,  9-H ) :   0.9820 B(  6-C , 10-H ) :   0.9792
B(  6-C , 11-H ) :   0.9755 B(  7-O ,  8-H ) :   0.9064

Dispersion correction           -0.000213401
FINAL SINGLE POINT ENERGY      -115.725542749264

DIPOLE MOMENT
-------------
                                X             Y             Z
Electronic contribution:      1.45683       0.18387      -1.40619
Nuclear contribution   :     -1.48581      -0.01841       2.11780
                        -----------------------------------------
Total Dipole Moment    :     -0.02897       0.16546       0.71162
                        -----------------------------------------
Magnitude (a.u.)       :      0.73117
Magnitude (Debye)      :      1.85850

Rotational constants in cm-1:     4.380223     0.865590     0.822868
Rotational constants in MHz : 131315.780116 25949.725277 24668.974876

                             ****ORCA TERMINATED NORMALLY****
TOTAL RUN TIME: 0 days 0 hours 0 minutes 55 seconds 726 msec
