                         Program Version 4.1.2  - RELEASE  -
|  1> #Run DFT-D3 single point of the dimer
|  2> ! wB97X-D3 def2-TZVP TIGHTSCF CHELPG PMODEL PAL8
|  3>
|  4> %base "6-85_DFT_AB"
|  5>
|  6> %scf
|  7> MaxIter 1000
|  8> end
|  9>
| 10> * xyz 0 1
| 11>   C                      -4.592135            -8.778354            -4.672863
| 12>   O                      -4.996036            -7.685713            -3.782804
| 13>   H                      -4.696775            -7.821721            -2.928204
| 14>   H                      -3.534098            -9.010149            -4.638917
| 15>   H                      -5.112055            -9.688766            -4.343416
| 16>   H                      -4.938609            -8.647915            -5.698391
| 17>   C                      0.180545             -10.297289           -5.058713
| 18>   O                      1.490087             -9.987446            -4.952644
| 19>   H                      1.605232             -9.157271            -4.456743
| 20>   H                      0.049358             -11.348211           -5.207768
| 21>   H                      -0.377861            -10.163069           -4.157175
| 22>   H                      -0.419587            -9.736839            -5.776926
| 23> *
| 24>
| 25> #Run DFT-D3 single point of the molecule with dimer basis set
| 26> $new_job
| 27> %base "6-85_DFT_A"
| 28> ! wB97X-D3 def2-TZVP TIGHTSCF CHELPG PMODEL
| 29>
| 30> %scf
| 31> MaxIter 1000
| 32> end
| 33>
| 34> * xyz 0 1
| 35>   C                      -4.592135            -8.778354            -4.672863
| 36>   O                      -4.996036            -7.685713            -3.782804
| 37>   H                      -4.696775            -7.821721            -2.928204
| 38>   H                      -3.534098            -9.010149            -4.638917
| 39>   H                      -5.112055            -9.688766            -4.343416
| 40>   H                      -4.938609            -8.647915            -5.698391
| 41>   C                    : 0.180545             -10.297289           -5.058713
| 42>   O                    : 1.490087             -9.987446            -4.952644
| 43>   H                    : 1.605232             -9.157271            -4.456743
| 44>   H                    : 0.049358             -11.348211           -5.207768
| 45>   H                    : -0.377861            -10.163069           -4.157175
| 46>   H                    : -0.419587            -9.736839            -5.776926
| 47> *
| 48>
| 49> #Run DFT-D3 single point of the particle with dimer basis set
| 50> $new_job
| 51> %base "6-85_DFT_B"
| 52> ! wB97X-D3 def2-TZVP TIGHTSCF CHELPG PMODEL
| 53>
| 54> %scf
| 55> MaxIter 1000
| 56> end
| 57>
| 58> * xyz 0 1
| 59>   C                    : -4.592135            -8.778354            -4.672863
| 60>   O                    : -4.996036            -7.685713            -3.782804
| 61>   H                    : -4.696775            -7.821721            -2.928204
| 62>   H                    : -3.534098            -9.010149            -4.638917
| 63>   H                    : -5.112055            -9.688766            -4.343416
| 64>   H                    : -4.938609            -8.647915            -5.698391
| 65>   C                      0.180545             -10.297289           -5.058713
| 66>   O                      1.490087             -9.987446            -4.952644
| 67>   H                      1.605232             -9.157271            -4.456743
| 68>   H                      0.049358             -11.348211           -5.207768
| 69>   H                      -0.377861            -10.163069           -4.157175
| 70>   H                      -0.419587            -9.736839            -5.776926
| 71> *
| 72>
| 73>                          ****END OF INPUT****
 Total Charge           Charge          ....    0
 Multiplicity           Mult            ....    1
 Number of Electrons    NEL             ....   36
Dispersion correction           -0.000852416
FINAL SINGLE POINT ENERGY      -231.461117581170
Dispersion correction           -0.000267042
FINAL SINGLE POINT ENERGY      -115.730349807422

CARTESIAN COORDINATES (ANGSTROEM)
---------------------------------
  C     -4.592135   -8.778354   -4.672863
  O     -4.996036   -7.685713   -3.782804
  H     -4.696775   -7.821721   -2.928204
  H     -3.534098   -9.010149   -4.638917
  H     -5.112055   -9.688766   -4.343416
  H     -4.938609   -8.647915   -5.698391
  C      0.180545  -10.297289   -5.058713
  O      1.490087   -9.987446   -4.952644
  H      1.605232   -9.157271   -4.456743
  H      0.049358  -11.348211   -5.207768
  H     -0.377861  -10.163069   -4.157175
  H     -0.419587   -9.736839   -5.776926

 Multiplicity           Mult            ....    1
 Number of Electrons    NEL             ....   18
 Basis Dimension        Dim             ....  172

ORBITAL ENERGIES
----------------

  NO   OCC          E(Eh)            E(eV)
   0   2.0000     -19.233522      -523.3707
   1   2.0000     -10.300790      -280.2987
   2   2.0000      -1.154530       -31.4164
   3   2.0000      -0.799591       -21.7580
   4   2.0000      -0.629544       -17.1308
   5   2.0000      -0.548774       -14.9329
   6   2.0000      -0.533327       -14.5126
   7   2.0000      -0.426116       -11.5952
   8   2.0000      -0.371886       -10.1195
   9   0.0000       0.081969         2.2305
  10   0.0000       0.115303         3.1376
  11   0.0000       0.144556         3.9336
  12   0.0000       0.162738         4.4283
  13   0.0000       0.192051         5.2260

MULLIKEN ATOMIC CHARGES
-----------------------
   0 C :    0.000781
   1 O :   -0.000009
   2 H :   -0.000009
   3 H :   -0.001698
   4 H :   -0.000045
   5 H :   -0.000027
   6 C :   -0.146374
   7 O :   -0.464139
   8 H :    0.320567
   9 H :    0.111309
  10 H :    0.094219
  11 H :    0.085424
Sum of atomic charges:    0.0000000

LOEWDIN ATOMIC CHARGES
----------------------
   0 C :   -0.000133
   1 O :   -0.000003
   2 H :   -0.000001
   3 H :   -0.000553
   4 H :   -0.000002
   5 H :   -0.000003
   6 C :   -0.439374
   7 O :   -0.028451
   8 H :    0.184254
   9 H :    0.104909
  10 H :    0.089044
  11 H :    0.090312

  Mayer bond orders larger than 0.1
B(  6-C ,  7-O ) :   1.0207 B(  6-C ,  9-H ) :   0.9721 B(  6-C , 10-H ) :   0.9846
B(  6-C , 11-H ) :   0.9735 B(  7-O ,  8-H ) :   0.8917

Dispersion correction           -0.000231596
FINAL SINGLE POINT ENERGY      -115.730524741675

DIPOLE MOMENT
-------------
                                X             Y             Z
Electronic contribution:      1.93255       0.34469      -0.00333
Nuclear contribution   :     -2.33347       0.06414       0.32353
                        -----------------------------------------
Total Dipole Moment    :     -0.40092       0.40883       0.32020
                        -----------------------------------------
Magnitude (a.u.)       :      0.65605
Magnitude (Debye)      :      1.66755

Rotational constants in cm-1:     4.596988     0.881959     0.850682
Rotational constants in MHz : 137814.237344 26440.465585 25502.802398

                             ****ORCA TERMINATED NORMALLY****
TOTAL RUN TIME: 0 days 0 hours 1 minutes 5 seconds 14 msec
