                         Program Version 4.1.2  - RELEASE  -
|  1> #Run DFT-D3 single point of the dimer
|  2> ! wB97X-D3 def2-TZVP TIGHTSCF CHELPG PMODEL PAL8
|  3>
|  4> %base "20-166_DFT_AB"
|  5>
|  6> %scf
|  7> MaxIter 1000
|  8> end
|  9>
| 10> * xyz 0 1
| 11>   C                      -4.577794            -8.204555            0.758113
| 12>   O                      -3.963812            -6.878370            0.949898
| 13>   H                      -4.601478            -6.202893            0.636504
| 14>   H                      -4.823748            -8.459030            -0.313163
| 15>   H                      -3.861738            -8.947558            1.107325
| 16>   H                      -5.539757            -8.212242            1.264604
| 17>   C                      -5.187840            -5.626479            3.601586
| 18>   O                      -4.440785            -4.681219            2.812045
| 19>   H                      -3.502146            -4.902189            2.922035
| 20>   H                      -4.747590            -5.765776            4.629819
| 21>   H                      -6.267407            -5.338771            3.654883
| 22>   H                      -5.067076            -6.568381            3.197691
| 23> *
| 24>
| 25> #Run DFT-D3 single point of the molecule with dimer basis set
| 26> $new_job
| 27> %base "20-166_DFT_A"
| 28> ! wB97X-D3 def2-TZVP TIGHTSCF CHELPG PMODEL
| 29>
| 30> %scf
| 31> MaxIter 1000
| 32> end
| 33>
| 34> * xyz 0 1
| 35>   C                      -4.577794            -8.204555            0.758113
| 36>   O                      -3.963812            -6.878370            0.949898
| 37>   H                      -4.601478            -6.202893            0.636504
| 38>   H                      -4.823748            -8.459030            -0.313163
| 39>   H                      -3.861738            -8.947558            1.107325
| 40>   H                      -5.539757            -8.212242            1.264604
| 41>   C                    : -5.187840            -5.626479            3.601586
| 42>   O                    : -4.440785            -4.681219            2.812045
| 43>   H                    : -3.502146            -4.902189            2.922035
| 44>   H                    : -4.747590            -5.765776            4.629819
| 45>   H                    : -6.267407            -5.338771            3.654883
| 46>   H                    : -5.067076            -6.568381            3.197691
| 47> *
| 48>
| 49> #Run DFT-D3 single point of the particle with dimer basis set
| 50> $new_job
| 51> %base "20-166_DFT_B"
| 52> ! wB97X-D3 def2-TZVP TIGHTSCF CHELPG PMODEL
| 53>
| 54> %scf
| 55> MaxIter 1000
| 56> end
| 57>
| 58> * xyz 0 1
| 59>   C                    : -4.577794            -8.204555            0.758113
| 60>   O                    : -3.963812            -6.878370            0.949898
| 61>   H                    : -4.601478            -6.202893            0.636504
| 62>   H                    : -4.823748            -8.459030            -0.313163
| 63>   H                    : -3.861738            -8.947558            1.107325
| 64>   H                    : -5.539757            -8.212242            1.264604
| 65>   C                      -5.187840            -5.626479            3.601586
| 66>   O                      -4.440785            -4.681219            2.812045
| 67>   H                      -3.502146            -4.902189            2.922035
| 68>   H                      -4.747590            -5.765776            4.629819
| 69>   H                      -6.267407            -5.338771            3.654883
| 70>   H                      -5.067076            -6.568381            3.197691
| 71> *
| 72>
| 73>                          ****END OF INPUT****
 Total Charge           Charge          ....    0
 Multiplicity           Mult            ....    1
 Number of Electrons    NEL             ....   36
Dispersion correction           -0.002172994
FINAL SINGLE POINT ENERGY      -231.467988780218
Dispersion correction           -0.000269330
FINAL SINGLE POINT ENERGY      -115.733189102571

CARTESIAN COORDINATES (ANGSTROEM)
---------------------------------
  C     -4.577794   -8.204555    0.758113
  O     -3.963812   -6.878370    0.949898
  H     -4.601478   -6.202893    0.636504
  H     -4.823748   -8.459030   -0.313163
  H     -3.861738   -8.947558    1.107325
  H     -5.539757   -8.212242    1.264604
  C     -5.187840   -5.626479    3.601586
  O     -4.440785   -4.681219    2.812045
  H     -3.502146   -4.902189    2.922035
  H     -4.747590   -5.765776    4.629819
  H     -6.267407   -5.338771    3.654883
  H     -5.067076   -6.568381    3.197691

 Multiplicity           Mult            ....    1
 Number of Electrons    NEL             ....   18
 Basis Dimension        Dim             ....  172

ORBITAL ENERGIES
----------------

  NO   OCC          E(Eh)            E(eV)
   0   2.0000     -19.231492      -523.3155
   1   2.0000     -10.314771      -280.6792
   2   2.0000      -1.127292       -30.6752
   3   2.0000      -0.796517       -21.6743
   4   2.0000      -0.609058       -16.5733
   5   2.0000      -0.535988       -14.5850
   6   2.0000      -0.523328       -14.2405
   7   2.0000      -0.440569       -11.9885
   8   2.0000      -0.372029       -10.1234
   9   0.0000       0.085675         2.3313
  10   0.0000       0.121286         3.3004
  11   0.0000       0.151812         4.1310
  12   0.0000       0.180958         4.9241
  13   0.0000       0.191364         5.2073

MULLIKEN ATOMIC CHARGES
-----------------------
   0 C :    0.000973
   1 O :   -0.002208
   2 H :   -0.004458
   3 H :    0.000099
   4 H :   -0.000436
   5 H :    0.000137
   6 C :   -0.178276
   7 O :   -0.473229
   8 H :    0.315196
   9 H :    0.104013
  10 H :    0.127635
  11 H :    0.110552
Sum of atomic charges:   -0.0000000

LOEWDIN ATOMIC CHARGES
----------------------
   0 C :   -0.005035
   1 O :   -0.010118
   2 H :   -0.008875
   3 H :   -0.000040
   4 H :   -0.000119
   5 H :   -0.001945
   6 C :   -0.360791
   7 O :   -0.088563
   8 H :    0.174050
   9 H :    0.101677
  10 H :    0.116438
  11 H :    0.083322

  Mayer bond orders larger than 0.1
B(  6-C ,  7-O ) :   0.9870 B(  6-C ,  9-H ) :   0.9789 B(  6-C , 10-H ) :   0.9729
B(  6-C , 11-H ) :   0.9729 B(  7-O ,  8-H ) :   0.8979

Dispersion correction           -0.000239362
FINAL SINGLE POINT ENERGY      -115.730888242105

DIPOLE MOMENT
-------------
                                X             Y             Z
Electronic contribution:      0.72224       1.27857      -1.08541
Nuclear contribution   :     -0.43763      -1.82093       1.47201
                        -----------------------------------------
Total Dipole Moment    :      0.28461      -0.54236       0.38660
                        -----------------------------------------
Magnitude (a.u.)       :      0.72431
Magnitude (Debye)      :      1.84104

Rotational constants in cm-1:     4.264330     0.815477     0.771448
Rotational constants in MHz : 127841.382893 24447.383236 23127.422130

                             ****ORCA TERMINATED NORMALLY****
TOTAL RUN TIME: 0 days 0 hours 1 minutes 1 seconds 803 msec
