                         Program Version 4.1.2  - RELEASE  -
|  1> #Run DFT-D3 single point of the dimer
|  2> ! wB97X-D3 def2-TZVP TIGHTSCF CHELPG PMODEL PAL8
|  3>
|  4> %base "2-25_DFT_AB"
|  5>
|  6> %scf
|  7> MaxIter 1000
|  8> end
|  9>
| 10> * xyz 0 1
| 11>   C                      3.461109             3.222378             4.105244
| 12>   O                      3.157580             2.071432             3.453058
| 13>   H                      2.370845             1.638740             3.819682
| 14>   H                      3.982423             3.051816             5.032330
| 15>   H                      4.203252             3.873688             3.594400
| 16>   H                      2.649209             3.897304             4.300673
| 17>   C                      0.213633             0.789000             5.398582
| 18>   O                      -0.722718            0.562031             4.391350
| 19>   H                      -1.304704            1.306406             4.425800
| 20>   H                      0.998576             0.039878             5.336639
| 21>   H                      0.507722             1.839975             5.266231
| 22>   H                      -0.189983            0.684337             6.403139
| 23> *
| 24>
| 25> #Run DFT-D3 single point of the molecule with dimer basis set
| 26> $new_job
| 27> %base "2-25_DFT_A"
| 28> ! wB97X-D3 def2-TZVP TIGHTSCF CHELPG PMODEL
| 29>
| 30> %scf
| 31> MaxIter 1000
| 32> end
| 33>
| 34> * xyz 0 1
| 35>   C                      3.461109             3.222378             4.105244
| 36>   O                      3.157580             2.071432             3.453058
| 37>   H                      2.370845             1.638740             3.819682
| 38>   H                      3.982423             3.051816             5.032330
| 39>   H                      4.203252             3.873688             3.594400
| 40>   H                      2.649209             3.897304             4.300673
| 41>   C                    : 0.213633             0.789000             5.398582
| 42>   O                    : -0.722718            0.562031             4.391350
| 43>   H                    : -1.304704            1.306406             4.425800
| 44>   H                    : 0.998576             0.039878             5.336639
| 45>   H                    : 0.507722             1.839975             5.266231
| 46>   H                    : -0.189983            0.684337             6.403139
| 47> *
| 48>
| 49> #Run DFT-D3 single point of the particle with dimer basis set
| 50> $new_job
| 51> %base "2-25_DFT_B"
| 52> ! wB97X-D3 def2-TZVP TIGHTSCF CHELPG PMODEL
| 53>
| 54> %scf
| 55> MaxIter 1000
| 56> end
| 57>
| 58> * xyz 0 1
| 59>   C                    : 3.461109             3.222378             4.105244
| 60>   O                    : 3.157580             2.071432             3.453058
| 61>   H                    : 2.370845             1.638740             3.819682
| 62>   H                    : 3.982423             3.051816             5.032330
| 63>   H                    : 4.203252             3.873688             3.594400
| 64>   H                    : 2.649209             3.897304             4.300673
| 65>   C                      0.213633             0.789000             5.398582
| 66>   O                      -0.722718            0.562031             4.391350
| 67>   H                      -1.304704            1.306406             4.425800
| 68>   H                      0.998576             0.039878             5.336639
| 69>   H                      0.507722             1.839975             5.266231
| 70>   H                      -0.189983            0.684337             6.403139
| 71> *
| 72>
| 73>                          ****END OF INPUT****
 Total Charge           Charge          ....    0
 Multiplicity           Mult            ....    1
 Number of Electrons    NEL             ....   36
Dispersion correction           -0.001582331
FINAL SINGLE POINT ENERGY      -231.465053823628
Dispersion correction           -0.000243364
FINAL SINGLE POINT ENERGY      -115.731102500058

CARTESIAN COORDINATES (ANGSTROEM)
---------------------------------
  C      3.461109    3.222378    4.105244
  O      3.157580    2.071432    3.453058
  H      2.370845    1.638740    3.819682
  H      3.982423    3.051816    5.032330
  H      4.203252    3.873688    3.594400
  H      2.649209    3.897304    4.300673
  C      0.213633    0.789000    5.398582
  O     -0.722718    0.562031    4.391350
  H     -1.304704    1.306406    4.425800
  H      0.998576    0.039878    5.336639
  H      0.507722    1.839975    5.266231
  H     -0.189983    0.684337    6.403139

 Multiplicity           Mult            ....    1
 Number of Electrons    NEL             ....   18
 Basis Dimension        Dim             ....  172

ORBITAL ENERGIES
----------------

  NO   OCC          E(Eh)            E(eV)
   0   2.0000     -19.226833      -523.1887
   1   2.0000     -10.310792      -280.5709
   2   2.0000      -1.147299       -31.2196
   3   2.0000      -0.793777       -21.5998
   4   2.0000      -0.616204       -16.7678
   5   2.0000      -0.550823       -14.9886
   6   2.0000      -0.526994       -14.3402
   7   2.0000      -0.437617       -11.9082
   8   2.0000      -0.369000       -10.0410
   9   0.0000       0.085968         2.3393
  10   0.0000       0.117945         3.2095
  11   0.0000       0.158591         4.3155
  12   0.0000       0.173250         4.7144
  13   0.0000       0.188376         5.1260

MULLIKEN ATOMIC CHARGES
-----------------------
   0 C :   -0.001972
   1 O :   -0.000042
   2 H :    0.001869
   3 H :    0.000125
   4 H :   -0.000075
   5 H :    0.000016
   6 C :   -0.159657
   7 O :   -0.464721
   8 H :    0.310231
   9 H :    0.114038
  10 H :    0.099333
  11 H :    0.100855
Sum of atomic charges:    0.0000000

LOEWDIN ATOMIC CHARGES
----------------------
   0 C :   -0.002047
   1 O :   -0.000370
   2 H :   -0.006244
   3 H :   -0.000071
   4 H :   -0.000028
   5 H :   -0.000537
   6 C :   -0.393974
   7 O :   -0.057156
   8 H :    0.161706
   9 H :    0.108016
  10 H :    0.100404
  11 H :    0.090301

  Mayer bond orders larger than 0.1
B(  6-C ,  7-O ) :   0.9919 B(  6-C ,  9-H ) :   0.9739 B(  6-C , 10-H ) :   0.9972
B(  6-C , 11-H ) :   0.9670 B(  7-O ,  8-H ) :   0.9055

Dispersion correction           -0.000207621
FINAL SINGLE POINT ENERGY      -115.732465270944

DIPOLE MOMENT
-------------
                                X             Y             Z
Electronic contribution:     -1.07148      -0.46570      -1.33889
Nuclear contribution   :      1.05667       1.00933       1.74666
                        -----------------------------------------
Total Dipole Moment    :     -0.01480       0.54363       0.40777
                        -----------------------------------------
Magnitude (a.u.)       :      0.67973
Magnitude (Debye)      :      1.72773

Rotational constants in cm-1:     4.251173     0.868990     0.826873
Rotational constants in MHz : 127446.965596 26051.669314 24789.018008

                             ****ORCA TERMINATED NORMALLY****
TOTAL RUN TIME: 0 days 0 hours 5 minutes 36 seconds 575 msec
