                         Program Version 4.1.2  - RELEASE  -
|  1> #Run DFT-D3 single point of the dimer
|  2> ! wB97X-D3 def2-TZVP TIGHTSCF CHELPG PMODEL PAL8
|  3>
|  4> %base "4-56_DFT_AB"
|  5>
|  6> %scf
|  7> MaxIter 1000
|  8> end
|  9>
| 10> * xyz 0 1
| 11>   C                      4.599833             1.923888             6.602593
| 12>   O                      3.786116             2.729609             7.484004
| 13>   H                      3.607876             3.440949             6.897519
| 14>   H                      5.455821             2.534420             6.223668
| 15>   H                      5.103900             1.124986             7.097621
| 16>   H                      4.070648             1.512387             5.743250
| 17>   C                      3.173159             -1.743620            8.397858
| 18>   O                      3.518137             -2.253465            9.656749
| 19>   H                      4.315731             -1.825932            9.945359
| 20>   H                      2.834744             -0.727385            8.399304
| 21>   H                      3.936698             -1.861847            7.610112
| 22>   H                      2.238054             -2.298112            8.161534
| 23> *
| 24>
| 25> #Run DFT-D3 single point of the molecule with dimer basis set
| 26> $new_job
| 27> %base "4-56_DFT_A"
| 28> ! wB97X-D3 def2-TZVP TIGHTSCF CHELPG PMODEL
| 29>
| 30> %scf
| 31> MaxIter 1000
| 32> end
| 33>
| 34> * xyz 0 1
| 35>   C                      4.599833             1.923888             6.602593
| 36>   O                      3.786116             2.729609             7.484004
| 37>   H                      3.607876             3.440949             6.897519
| 38>   H                      5.455821             2.534420             6.223668
| 39>   H                      5.103900             1.124986             7.097621
| 40>   H                      4.070648             1.512387             5.743250
| 41>   C                    : 3.173159             -1.743620            8.397858
| 42>   O                    : 3.518137             -2.253465            9.656749
| 43>   H                    : 4.315731             -1.825932            9.945359
| 44>   H                    : 2.834744             -0.727385            8.399304
| 45>   H                    : 3.936698             -1.861847            7.610112
| 46>   H                    : 2.238054             -2.298112            8.161534
| 47> *
| 48>
| 49> #Run DFT-D3 single point of the particle with dimer basis set
| 50> $new_job
| 51> %base "4-56_DFT_B"
| 52> ! wB97X-D3 def2-TZVP TIGHTSCF CHELPG PMODEL
| 53>
| 54> %scf
| 55> MaxIter 1000
| 56> end
| 57>
| 58> * xyz 0 1
| 59>   C                    : 4.599833             1.923888             6.602593
| 60>   O                    : 3.786116             2.729609             7.484004
| 61>   H                    : 3.607876             3.440949             6.897519
| 62>   H                    : 5.455821             2.534420             6.223668
| 63>   H                    : 5.103900             1.124986             7.097621
| 64>   H                    : 4.070648             1.512387             5.743250
| 65>   C                      3.173159             -1.743620            8.397858
| 66>   O                      3.518137             -2.253465            9.656749
| 67>   H                      4.315731             -1.825932            9.945359
| 68>   H                      2.834744             -0.727385            8.399304
| 69>   H                      3.936698             -1.861847            7.610112
| 70>   H                      2.238054             -2.298112            8.161534
| 71> *
| 72>
| 73>                          ****END OF INPUT****
 Total Charge           Charge          ....    0
 Multiplicity           Mult            ....    1
 Number of Electrons    NEL             ....   36
Dispersion correction           -0.001192024
FINAL SINGLE POINT ENERGY      -231.466590715672
Dispersion correction           -0.000234917
FINAL SINGLE POINT ENERGY      -115.731339937246

CARTESIAN COORDINATES (ANGSTROEM)
---------------------------------
  C      4.599833    1.923888    6.602593
  O      3.786116    2.729609    7.484004
  H      3.607876    3.440949    6.897519
  H      5.455821    2.534420    6.223668
  H      5.103900    1.124986    7.097621
  H      4.070648    1.512387    5.743250
  C      3.173159   -1.743620    8.397858
  O      3.518137   -2.253465    9.656749
  H      4.315731   -1.825932    9.945359
  H      2.834744   -0.727385    8.399304
  H      3.936698   -1.861847    7.610112
  H      2.238054   -2.298112    8.161534

 Multiplicity           Mult            ....    1
 Number of Electrons    NEL             ....   18
 Basis Dimension        Dim             ....  172

ORBITAL ENERGIES
----------------

  NO   OCC          E(Eh)            E(eV)
   0   2.0000     -19.231155      -523.3063
   1   2.0000     -10.310995      -280.5764
   2   2.0000      -1.142760       -31.0961
   3   2.0000      -0.796489       -21.6736
   4   2.0000      -0.617414       -16.8007
   5   2.0000      -0.545430       -14.8419
   6   2.0000      -0.519726       -14.1425
   7   2.0000      -0.433037       -11.7835
   8   2.0000      -0.376256       -10.2384
   9   0.0000       0.078720         2.1421
  10   0.0000       0.117314         3.1923
  11   0.0000       0.151431         4.1206
  12   0.0000       0.164297         4.4707
  13   0.0000       0.188853         5.1389

MULLIKEN ATOMIC CHARGES
-----------------------
   0 C :   -0.001359
   1 O :    0.000120
   2 H :    0.000002
   3 H :   -0.000044
   4 H :    0.000240
   5 H :    0.000162
   6 C :   -0.155427
   7 O :   -0.465968
   8 H :    0.309894
   9 H :    0.101067
  10 H :    0.097987
  11 H :    0.113327
Sum of atomic charges:   -0.0000000

LOEWDIN ATOMIC CHARGES
----------------------
   0 C :   -0.001468
   1 O :   -0.000103
   2 H :   -0.000008
   3 H :   -0.000019
   4 H :   -0.000572
   5 H :   -0.000096
   6 C :   -0.399266
   7 O :   -0.059420
   8 H :    0.160965
   9 H :    0.088355
  10 H :    0.095210
  11 H :    0.116423

  Mayer bond orders larger than 0.1
B(  6-C ,  7-O ) :   1.0080 B(  6-C ,  9-H ) :   0.9724 B(  6-C , 10-H ) :   0.9716
B(  6-C , 11-H ) :   0.9766 B(  7-O ,  8-H ) :   0.9029

Dispersion correction           -0.000245982
FINAL SINGLE POINT ENERGY      -115.734348858205

DIPOLE MOMENT
-------------
                                X             Y             Z
Electronic contribution:      0.48502      -0.68757       1.62984
Nuclear contribution   :     -0.12535       1.16566      -1.91934
                        -----------------------------------------
Total Dipole Moment    :      0.35967       0.47808      -0.28950
                        -----------------------------------------
Magnitude (a.u.)       :      0.66464
Magnitude (Debye)      :      1.68937

Rotational constants in cm-1:     4.334171     0.844338     0.810713
Rotational constants in MHz : 129935.166286 25312.610765 24304.563428

                             ****ORCA TERMINATED NORMALLY****
TOTAL RUN TIME: 0 days 0 hours 1 minutes 35 seconds 304 msec
