                         Program Version 4.1.2  - RELEASE  -
|  1> #Run DFT-D3 single point of the dimer
|  2> ! wB97X-D3 def2-TZVP TIGHTSCF CHELPG PMODEL PAL8
|  3>
|  4> %base "14-108_DFT_AB"
|  5>
|  6> %scf
|  7> MaxIter 1000
|  8> end
|  9>
| 10> * xyz 0 1
| 11>   C                      -7.605909            2.443021             -5.622041
| 12>   O                      -8.394434            3.474753             -5.066151
| 13>   H                      -8.746984            3.268596             -4.163043
| 14>   H                      -6.908455            2.024404             -4.832031
| 15>   H                      -8.242513            1.688588             -6.000919
| 16>   H                      -7.027775            2.828739             -6.512241
| 17>   C                      -11.198574           2.196297             -8.663899
| 18>   O                      -9.934511            2.627828             -9.106042
| 19>   H                      -9.437128            2.008321             -9.679980
| 20>   H                      -11.242939           1.426187             -7.873173
| 21>   H                      -11.747869           3.026897             -8.234249
| 22>   H                      -11.859639           1.793048             -9.379719
| 23> *
| 24>
| 25> #Run DFT-D3 single point of the molecule with dimer basis set
| 26> $new_job
| 27> %base "14-108_DFT_A"
| 28> ! wB97X-D3 def2-TZVP TIGHTSCF CHELPG PMODEL
| 29>
| 30> %scf
| 31> MaxIter 1000
| 32> end
| 33>
| 34> * xyz 0 1
| 35>   C                      -7.605909            2.443021             -5.622041
| 36>   O                      -8.394434            3.474753             -5.066151
| 37>   H                      -8.746984            3.268596             -4.163043
| 38>   H                      -6.908455            2.024404             -4.832031
| 39>   H                      -8.242513            1.688588             -6.000919
| 40>   H                      -7.027775            2.828739             -6.512241
| 41>   C                    : -11.198574           2.196297             -8.663899
| 42>   O                    : -9.934511            2.627828             -9.106042
| 43>   H                    : -9.437128            2.008321             -9.679980
| 44>   H                    : -11.242939           1.426187             -7.873173
| 45>   H                    : -11.747869           3.026897             -8.234249
| 46>   H                    : -11.859639           1.793048             -9.379719
| 47> *
| 48>
| 49> #Run DFT-D3 single point of the particle with dimer basis set
| 50> $new_job
| 51> %base "14-108_DFT_B"
| 52> ! wB97X-D3 def2-TZVP TIGHTSCF CHELPG PMODEL
| 53>
| 54> %scf
| 55> MaxIter 1000
| 56> end
| 57>
| 58> * xyz 0 1
| 59>   C                    : -7.605909            2.443021             -5.622041
| 60>   O                    : -8.394434            3.474753             -5.066151
| 61>   H                    : -8.746984            3.268596             -4.163043
| 62>   H                    : -6.908455            2.024404             -4.832031
| 63>   H                    : -8.242513            1.688588             -6.000919
| 64>   H                    : -7.027775            2.828739             -6.512241
| 65>   C                      -11.198574           2.196297             -8.663899
| 66>   O                      -9.934511            2.627828             -9.106042
| 67>   H                      -9.437128            2.008321             -9.679980
| 68>   H                      -11.242939           1.426187             -7.873173
| 69>   H                      -11.747869           3.026897             -8.234249
| 70>   H                      -11.859639           1.793048             -9.379719
| 71> *
| 72>
| 73>                          ****END OF INPUT****
 Total Charge           Charge          ....    0
 Multiplicity           Mult            ....    1
 Number of Electrons    NEL             ....   36
Dispersion correction           -0.001162513
FINAL SINGLE POINT ENERGY      -231.461956880399
Dispersion correction           -0.000251405
FINAL SINGLE POINT ENERGY      -115.731495912255

CARTESIAN COORDINATES (ANGSTROEM)
---------------------------------
  C     -7.605909    2.443021   -5.622041
  O     -8.394434    3.474753   -5.066151
  H     -8.746984    3.268596   -4.163043
  H     -6.908455    2.024404   -4.832031
  H     -8.242513    1.688588   -6.000919
  H     -7.027775    2.828739   -6.512241
  C    -11.198574    2.196297   -8.663899
  O     -9.934511    2.627828   -9.106042
  H     -9.437128    2.008321   -9.679980
  H    -11.242939    1.426187   -7.873173
  H    -11.747869    3.026897   -8.234249
  H    -11.859639    1.793048   -9.379719

 Multiplicity           Mult            ....    1
 Number of Electrons    NEL             ....   18
 Basis Dimension        Dim             ....  172

ORBITAL ENERGIES
----------------

  NO   OCC          E(Eh)            E(eV)
   0   2.0000     -19.235110      -523.4140
   1   2.0000     -10.308683      -280.5135
   2   2.0000      -1.131412       -30.7873
   3   2.0000      -0.804292       -21.8859
   4   2.0000      -0.621849       -16.9214
   5   2.0000      -0.531619       -14.4661
   6   2.0000      -0.527826       -14.3629
   7   2.0000      -0.428038       -11.6475
   8   2.0000      -0.374334       -10.1862
   9   0.0000       0.090727         2.4688
  10   0.0000       0.119407         3.2492
  11   0.0000       0.145724         3.9654
  12   0.0000       0.172235         4.6867
  13   0.0000       0.194576         5.2947

MULLIKEN ATOMIC CHARGES
-----------------------
   0 C :   -0.000556
   1 O :    0.000043
   2 H :   -0.000012
   3 H :   -0.000154
   4 H :   -0.001142
   5 H :   -0.000550
   6 C :   -0.154298
   7 O :   -0.488009
   8 H :    0.322453
   9 H :    0.092790
  10 H :    0.120315
  11 H :    0.109122
Sum of atomic charges:   -0.0000000

LOEWDIN ATOMIC CHARGES
----------------------
   0 C :   -0.001729
   1 O :   -0.000016
   2 H :   -0.000003
   3 H :   -0.000047
   4 H :   -0.000600
   5 H :   -0.000451
   6 C :   -0.394878
   7 O :   -0.074059
   8 H :    0.180664
   9 H :    0.094621
  10 H :    0.109566
  11 H :    0.086931

  Mayer bond orders larger than 0.1
B(  6-C ,  7-O ) :   1.0027 B(  6-C ,  9-H ) :   0.9729 B(  6-C , 10-H ) :   0.9765
B(  6-C , 11-H ) :   0.9735 B(  7-O ,  8-H ) :   0.8865

Dispersion correction           -0.000286011
FINAL SINGLE POINT ENERGY      -115.730524104105

DIPOLE MOMENT
-------------
                                X             Y             Z
Electronic contribution:      1.73420       0.66706      -0.62988
Nuclear contribution   :     -1.94387      -1.24042       0.40593
                        -----------------------------------------
Total Dipole Moment    :     -0.20967      -0.57336      -0.22395
                        -----------------------------------------
Magnitude (a.u.)       :      0.65028
Magnitude (Debye)      :      1.65287

Rotational constants in cm-1:     4.719424     0.811485     0.783529
Rotational constants in MHz : 141484.769204 24327.702205 23489.594744

                             ****ORCA TERMINATED NORMALLY****
TOTAL RUN TIME: 0 days 0 hours 0 minutes 53 seconds 379 msec
