                         Program Version 4.1.2  - RELEASE  -
|  1> #Run DFT-D3 single point of the dimer
|  2> ! wB97X-D3 def2-TZVP TIGHTSCF CHELPG PMODEL PAL8
|  3>
|  4> %base "1-115_DFT_AB"
|  5>
|  6> %scf
|  7> MaxIter 1000
|  8> end
|  9>
| 10> * xyz 0 1
| 11>   C                      4.888409             3.253564             1.564337
| 12>   O                      3.677006             2.583596             1.661210
| 13>   H                      3.206091             3.184549             2.313653
| 14>   H                      4.815171             4.370015             1.276239
| 15>   H                      5.420325             3.232220             2.517922
| 16>   H                      5.548820             2.761538             0.826897
| 17>   C                      2.048376             4.863387             1.672935
| 18>   O                      2.054165             6.299924             1.791389
| 19>   H                      2.832459             6.575149             2.255047
| 20>   H                      1.922047             4.439233             2.619953
| 21>   H                      1.223006             4.407376             1.191580
| 22>   H                      3.058283             4.518590             1.360563
| 23> *
| 24>
| 25> #Run DFT-D3 single point of the molecule with dimer basis set
| 26> $new_job
| 27> %base "1-115_DFT_A"
| 28> ! wB97X-D3 def2-TZVP TIGHTSCF CHELPG PMODEL
| 29>
| 30> %scf
| 31> MaxIter 1000
| 32> end
| 33>
| 34> * xyz 0 1
| 35>   C                      4.888409             3.253564             1.564337
| 36>   O                      3.677006             2.583596             1.661210
| 37>   H                      3.206091             3.184549             2.313653
| 38>   H                      4.815171             4.370015             1.276239
| 39>   H                      5.420325             3.232220             2.517922
| 40>   H                      5.548820             2.761538             0.826897
| 41>   C                    : 2.048376             4.863387             1.672935
| 42>   O                    : 2.054165             6.299924             1.791389
| 43>   H                    : 2.832459             6.575149             2.255047
| 44>   H                    : 1.922047             4.439233             2.619953
| 45>   H                    : 1.223006             4.407376             1.191580
| 46>   H                    : 3.058283             4.518590             1.360563
| 47> *
| 48>
| 49> #Run DFT-D3 single point of the particle with dimer basis set
| 50> $new_job
| 51> %base "1-115_DFT_B"
| 52> ! wB97X-D3 def2-TZVP TIGHTSCF CHELPG PMODEL
| 53>
| 54> %scf
| 55> MaxIter 1000
| 56> end
| 57>
| 58> * xyz 0 1
| 59>   C                    : 4.888409             3.253564             1.564337
| 60>   O                    : 3.677006             2.583596             1.661210
| 61>   H                    : 3.206091             3.184549             2.313653
| 62>   H                    : 4.815171             4.370015             1.276239
| 63>   H                    : 5.420325             3.232220             2.517922
| 64>   H                    : 5.548820             2.761538             0.826897
| 65>   C                      2.048376             4.863387             1.672935
| 66>   O                      2.054165             6.299924             1.791389
| 67>   H                      2.832459             6.575149             2.255047
| 68>   H                      1.922047             4.439233             2.619953
| 69>   H                      1.223006             4.407376             1.191580
| 70>   H                      3.058283             4.518590             1.360563
| 71> *
| 72>
| 73>                          ****END OF INPUT****
 Total Charge           Charge          ....    0
 Multiplicity           Mult            ....    1
 Number of Electrons    NEL             ....   36
Dispersion correction           -0.002059451
FINAL SINGLE POINT ENERGY      -231.444586194149
Dispersion correction           -0.000226900
FINAL SINGLE POINT ENERGY      -115.731056351621

CARTESIAN COORDINATES (ANGSTROEM)
---------------------------------
  C      4.888409    3.253564    1.564337
  O      3.677006    2.583596    1.661210
  H      3.206091    3.184549    2.313653
  H      4.815171    4.370015    1.276239
  H      5.420325    3.232220    2.517922
  H      5.548820    2.761538    0.826897
  C      2.048376    4.863387    1.672935
  O      2.054165    6.299924    1.791389
  H      2.832459    6.575149    2.255047
  H      1.922047    4.439233    2.619953
  H      1.223006    4.407376    1.191580
  H      3.058283    4.518590    1.360563

 Multiplicity           Mult            ....    1
 Number of Electrons    NEL             ....   18
 Basis Dimension        Dim             ....  172

ORBITAL ENERGIES
----------------

  NO   OCC          E(Eh)            E(eV)
   0   2.0000     -19.227459      -523.2057
   1   2.0000     -10.309575      -280.5378
   2   2.0000      -1.129115       -30.7248
   3   2.0000      -0.806994       -21.9594
   4   2.0000      -0.608689       -16.5633
   5   2.0000      -0.549020       -14.9396
   6   2.0000      -0.524223       -14.2648
   7   2.0000      -0.434399       -11.8206
   8   2.0000      -0.370679       -10.0867
   9   0.0000       0.084763         2.3065
  10   0.0000       0.122030         3.3206
  11   0.0000       0.151367         4.1189
  12   0.0000       0.184330         5.0159
  13   0.0000       0.195341         5.3155

MULLIKEN ATOMIC CHARGES
-----------------------
   0 C :   -0.006689
   1 O :    0.003068
   2 H :   -0.010386
   3 H :    0.005851
   4 H :    0.000311
   5 H :    0.000697
   6 C :   -0.145308
   7 O :   -0.481522
   8 H :    0.313763
   9 H :    0.107341
  10 H :    0.129641
  11 H :    0.083232
Sum of atomic charges:    0.0000000

LOEWDIN ATOMIC CHARGES
----------------------
   0 C :   -0.028000
   1 O :   -0.018565
   2 H :   -0.034240
   3 H :   -0.012121
   4 H :   -0.000466
   5 H :   -0.000371
   6 C :   -0.323397
   7 O :   -0.086854
   8 H :    0.159087
   9 H :    0.097973
  10 H :    0.105734
  11 H :    0.141221

  Mayer bond orders larger than 0.1
B(  6-C ,  7-O ) :   0.9850 B(  6-C ,  9-H ) :   0.9799 B(  6-C , 10-H ) :   0.9677
B(  6-C , 11-H ) :   0.9919 B(  7-O ,  8-H ) :   0.9006

Dispersion correction           -0.000239157
FINAL SINGLE POINT ENERGY      -115.725537002597

DIPOLE MOMENT
-------------
                                X             Y             Z
Electronic contribution:     -0.21514       1.84259      -0.09179
Nuclear contribution   :      0.67958      -2.28210       0.38170
                        -----------------------------------------
Total Dipole Moment    :      0.46444      -0.43951       0.28991
                        -----------------------------------------
Magnitude (a.u.)       :      0.70209
Magnitude (Debye)      :      1.78456

Rotational constants in cm-1:     4.562628     0.808942     0.771503
Rotational constants in MHz : 136784.132588 24251.457223 23129.078301

                             ****ORCA TERMINATED NORMALLY****
TOTAL RUN TIME: 0 days 0 hours 5 minutes 44 seconds 654 msec
