                         Program Version 4.1.2  - RELEASE  -
|  1> #Run DFT-D3 single point of the dimer
|  2> ! wB97X-D3 def2-TZVP TIGHTSCF CHELPG PMODEL PAL8
|  3>
|  4> %base "10-79_DFT_AB"
|  5>
|  6> %scf
|  7> MaxIter 1000
|  8> end
|  9>
| 10> * xyz 0 1
| 11>   C                      -8.524424            -8.551857            -7.483804
| 12>   O                      -9.010956            -9.552221            -6.626090
| 13>   H                      -9.770529            -9.256232            -6.136644
| 14>   H                      -7.877334            -8.876806            -8.253957
| 15>   H                      -9.389126            -8.178034            -7.915574
| 16>   H                      -7.935626            -7.708410            -7.024587
| 17>   C                      -5.729797            -5.671993            -7.888468
| 18>   O                      -4.774896            -6.645310            -8.294019
| 19>   H                      -4.181447            -6.872125            -7.564931
| 20>   H                      -6.029496            -5.916102            -6.912379
| 21>   H                      -5.254209            -4.746069            -7.793093
| 22>   H                      -6.596670            -5.522676            -8.582093
| 23> *
| 24>
| 25> #Run DFT-D3 single point of the molecule with dimer basis set
| 26> $new_job
| 27> %base "10-79_DFT_A"
| 28> ! wB97X-D3 def2-TZVP TIGHTSCF CHELPG PMODEL
| 29>
| 30> %scf
| 31> MaxIter 1000
| 32> end
| 33>
| 34> * xyz 0 1
| 35>   C                      -8.524424            -8.551857            -7.483804
| 36>   O                      -9.010956            -9.552221            -6.626090
| 37>   H                      -9.770529            -9.256232            -6.136644
| 38>   H                      -7.877334            -8.876806            -8.253957
| 39>   H                      -9.389126            -8.178034            -7.915574
| 40>   H                      -7.935626            -7.708410            -7.024587
| 41>   C                    : -5.729797            -5.671993            -7.888468
| 42>   O                    : -4.774896            -6.645310            -8.294019
| 43>   H                    : -4.181447            -6.872125            -7.564931
| 44>   H                    : -6.029496            -5.916102            -6.912379
| 45>   H                    : -5.254209            -4.746069            -7.793093
| 46>   H                    : -6.596670            -5.522676            -8.582093
| 47> *
| 48>
| 49> #Run DFT-D3 single point of the particle with dimer basis set
| 50> $new_job
| 51> %base "10-79_DFT_B"
| 52> ! wB97X-D3 def2-TZVP TIGHTSCF CHELPG PMODEL
| 53>
| 54> %scf
| 55> MaxIter 1000
| 56> end
| 57>
| 58> * xyz 0 1
| 59>   C                    : -8.524424            -8.551857            -7.483804
| 60>   O                    : -9.010956            -9.552221            -6.626090
| 61>   H                    : -9.770529            -9.256232            -6.136644
| 62>   H                    : -7.877334            -8.876806            -8.253957
| 63>   H                    : -9.389126            -8.178034            -7.915574
| 64>   H                    : -7.935626            -7.708410            -7.024587
| 65>   C                      -5.729797            -5.671993            -7.888468
| 66>   O                      -4.774896            -6.645310            -8.294019
| 67>   H                      -4.181447            -6.872125            -7.564931
| 68>   H                      -6.029496            -5.916102            -6.912379
| 69>   H                      -5.254209            -4.746069            -7.793093
| 70>   H                      -6.596670            -5.522676            -8.582093
| 71> *
| 72>
| 73>                          ****END OF INPUT****
 Total Charge           Charge          ....    0
 Multiplicity           Mult            ....    1
 Number of Electrons    NEL             ....   36
Dispersion correction           -0.001407382
FINAL SINGLE POINT ENERGY      -231.456960714628
Dispersion correction           -0.000241462
FINAL SINGLE POINT ENERGY      -115.726860388500

CARTESIAN COORDINATES (ANGSTROEM)
---------------------------------
  C     -8.524424   -8.551857   -7.483804
  O     -9.010956   -9.552221   -6.626090
  H     -9.770529   -9.256232   -6.136644
  H     -7.877334   -8.876806   -8.253957
  H     -9.389126   -8.178034   -7.915574
  H     -7.935626   -7.708410   -7.024587
  C     -5.729797   -5.671993   -7.888468
  O     -4.774896   -6.645310   -8.294019
  H     -4.181447   -6.872125   -7.564931
  H     -6.029496   -5.916102   -6.912379
  H     -5.254209   -4.746069   -7.793093
  H     -6.596670   -5.522676   -8.582093

 Multiplicity           Mult            ....    1
 Number of Electrons    NEL             ....   18
 Basis Dimension        Dim             ....  172

ORBITAL ENERGIES
----------------

  NO   OCC          E(Eh)            E(eV)
   0   2.0000     -19.225699      -523.1579
   1   2.0000     -10.306681      -280.4591
   2   2.0000      -1.128811       -30.7165
   3   2.0000      -0.801057       -21.7979
   4   2.0000      -0.610884       -16.6230
   5   2.0000      -0.543651       -14.7935
   6   2.0000      -0.531125       -14.4526
   7   2.0000      -0.429772       -11.6947
   8   2.0000      -0.369465       -10.0537
   9   0.0000       0.089364         2.4317
  10   0.0000       0.117200         3.1892
  11   0.0000       0.150455         4.0941
  12   0.0000       0.172698         4.6993
  13   0.0000       0.191719         5.2169

MULLIKEN ATOMIC CHARGES
-----------------------
   0 C :   -0.000242
   1 O :    0.000029
   2 H :    0.000007
   3 H :   -0.000738
   4 H :    0.000116
   5 H :    0.000289
   6 C :   -0.154777
   7 O :   -0.490539
   8 H :    0.316032
   9 H :    0.101079
  10 H :    0.110470
  11 H :    0.118273
Sum of atomic charges:   -0.0000000

LOEWDIN ATOMIC CHARGES
----------------------
   0 C :   -0.001374
   1 O :   -0.000011
   2 H :   -0.000001
   3 H :   -0.000463
   4 H :   -0.000029
   5 H :   -0.002702
   6 C :   -0.365569
   7 O :   -0.091610
   8 H :    0.171945
   9 H :    0.087791
  10 H :    0.085739
  11 H :    0.116284

  Mayer bond orders larger than 0.1
B(  6-C ,  7-O ) :   0.9834 B(  6-C ,  9-H ) :   0.9906 B(  6-C , 10-H ) :   0.9777
B(  6-C , 11-H ) :   0.9706 B(  7-O ,  8-H ) :   0.8953

Dispersion correction           -0.000227297
FINAL SINGLE POINT ENERGY      -115.729035966996

DIPOLE MOMENT
-------------
                                X             Y             Z
Electronic contribution:      1.06737      -1.23354      -0.67309
Nuclear contribution   :     -1.07945       1.51412       1.33180
                        -----------------------------------------
Total Dipole Moment    :     -0.01209       0.28057       0.65870
                        -----------------------------------------
Magnitude (a.u.)       :      0.71607
Magnitude (Debye)      :      1.82011

Rotational constants in cm-1:     4.494733     0.828913     0.789565
Rotational constants in MHz : 134748.712713 24850.174738 23670.562927

                             ****ORCA TERMINATED NORMALLY****
TOTAL RUN TIME: 0 days 0 hours 1 minutes 3 seconds 483 msec
