                         Program Version 4.1.2  - RELEASE  -
|  1> #Run DFT-D3 single point of the dimer
|  2> ! wB97X-D3 def2-TZVP TIGHTSCF CHELPG PMODEL PAL8
|  3>
|  4> %base "17-142_DFT_AB"
|  5>
|  6> %scf
|  7> MaxIter 1000
|  8> end
|  9>
| 10> * xyz 0 1
| 11>   C                      2.761676             -6.208087            3.528277
| 12>   O                      3.031626             -7.417651            2.918432
| 13>   H                      2.459564             -7.478778            2.192738
| 14>   H                      3.046349             -6.231249            4.572474
| 15>   H                      3.447008             -5.440362            3.205289
| 16>   H                      1.725867             -5.883107            3.328720
| 17>   C                      5.828474             -4.478692            5.740824
| 18>   O                      5.992873             -4.691048            4.348628
| 19>   H                      6.191507             -5.635749            4.191753
| 20>   H                      6.727600             -4.485124            6.268104
| 21>   H                      5.386833             -3.495659            5.965815
| 22>   H                      5.111332             -5.201312            6.076706
| 23> *
| 24>
| 25> #Run DFT-D3 single point of the molecule with dimer basis set
| 26> $new_job
| 27> %base "17-142_DFT_A"
| 28> ! wB97X-D3 def2-TZVP TIGHTSCF CHELPG PMODEL
| 29>
| 30> %scf
| 31> MaxIter 1000
| 32> end
| 33>
| 34> * xyz 0 1
| 35>   C                      2.761676             -6.208087            3.528277
| 36>   O                      3.031626             -7.417651            2.918432
| 37>   H                      2.459564             -7.478778            2.192738
| 38>   H                      3.046349             -6.231249            4.572474
| 39>   H                      3.447008             -5.440362            3.205289
| 40>   H                      1.725867             -5.883107            3.328720
| 41>   C                    : 5.828474             -4.478692            5.740824
| 42>   O                    : 5.992873             -4.691048            4.348628
| 43>   H                    : 6.191507             -5.635749            4.191753
| 44>   H                    : 6.727600             -4.485124            6.268104
| 45>   H                    : 5.386833             -3.495659            5.965815
| 46>   H                    : 5.111332             -5.201312            6.076706
| 47> *
| 48>
| 49> #Run DFT-D3 single point of the particle with dimer basis set
| 50> $new_job
| 51> %base "17-142_DFT_B"
| 52> ! wB97X-D3 def2-TZVP TIGHTSCF CHELPG PMODEL
| 53>
| 54> %scf
| 55> MaxIter 1000
| 56> end
| 57>
| 58> * xyz 0 1
| 59>   C                    : 2.761676             -6.208087            3.528277
| 60>   O                    : 3.031626             -7.417651            2.918432
| 61>   H                    : 2.459564             -7.478778            2.192738
| 62>   H                    : 3.046349             -6.231249            4.572474
| 63>   H                    : 3.447008             -5.440362            3.205289
| 64>   H                    : 1.725867             -5.883107            3.328720
| 65>   C                      5.828474             -4.478692            5.740824
| 66>   O                      5.992873             -4.691048            4.348628
| 67>   H                      6.191507             -5.635749            4.191753
| 68>   H                      6.727600             -4.485124            6.268104
| 69>   H                      5.386833             -3.495659            5.965815
| 70>   H                      5.111332             -5.201312            6.076706
| 71> *
| 72>
| 73>                          ****END OF INPUT****
 Total Charge           Charge          ....    0
 Multiplicity           Mult            ....    1
 Number of Electrons    NEL             ....   36
Dispersion correction           -0.001687610
FINAL SINGLE POINT ENERGY      -231.465464227869
Dispersion correction           -0.000222216
FINAL SINGLE POINT ENERGY      -115.730666740585

CARTESIAN COORDINATES (ANGSTROEM)
---------------------------------
  C      2.761676   -6.208087    3.528277
  O      3.031626   -7.417651    2.918432
  H      2.459564   -7.478778    2.192738
  H      3.046349   -6.231249    4.572474
  H      3.447008   -5.440362    3.205289
  H      1.725867   -5.883107    3.328720
  C      5.828474   -4.478692    5.740824
  O      5.992873   -4.691048    4.348628
  H      6.191507   -5.635749    4.191753
  H      6.727600   -4.485124    6.268104
  H      5.386833   -3.495659    5.965815
  H      5.111332   -5.201312    6.076706

 Multiplicity           Mult            ....    1
 Number of Electrons    NEL             ....   18
 Basis Dimension        Dim             ....  172

ORBITAL ENERGIES
----------------

  NO   OCC          E(Eh)            E(eV)
   0   2.0000     -19.229650      -523.2654
   1   2.0000     -10.305747      -280.4336
   2   2.0000      -1.130178       -30.7537
   3   2.0000      -0.799735       -21.7619
   4   2.0000      -0.605312       -16.4714
   5   2.0000      -0.556468       -15.1423
   6   2.0000      -0.526960       -14.3393
   7   2.0000      -0.425563       -11.5802
   8   2.0000      -0.375380       -10.2146
   9   0.0000       0.087368         2.3774
  10   0.0000       0.125390         3.4120
  11   0.0000       0.150573         4.0973
  12   0.0000       0.175458         4.7745
  13   0.0000       0.189503         5.1566

MULLIKEN ATOMIC CHARGES
-----------------------
   0 C :   -0.006186
   1 O :    0.000599
   2 H :    0.000014
   3 H :    0.002201
   4 H :   -0.004381
   5 H :   -0.000561
   6 C :   -0.162302
   7 O :   -0.480975
   8 H :    0.317994
   9 H :    0.112421
  10 H :    0.114576
  11 H :    0.106599
Sum of atomic charges:   -0.0000000

LOEWDIN ATOMIC CHARGES
----------------------
   0 C :   -0.005062
   1 O :   -0.000036
   2 H :   -0.000007
   3 H :   -0.001228
   4 H :   -0.006332
   5 H :   -0.000079
   6 C :   -0.373923
   7 O :   -0.083363
   8 H :    0.179277
   9 H :    0.084811
  10 H :    0.111499
  11 H :    0.094442

  Mayer bond orders larger than 0.1
B(  6-C ,  7-O ) :   0.9875 B(  6-C ,  9-H ) :   0.9747 B(  6-C , 10-H ) :   0.9740
B(  6-C , 11-H ) :   0.9883 B(  7-O ,  8-H ) :   0.8943

Dispersion correction           -0.000230848
FINAL SINGLE POINT ENERGY      -115.732538352910

DIPOLE MOMENT
-------------
                                X             Y             Z
Electronic contribution:      0.28855      -0.15044      -1.72909
Nuclear contribution   :     -0.22210      -0.34388       2.22056
                        -----------------------------------------
Total Dipole Moment    :      0.06645      -0.49432       0.49147
                        -----------------------------------------
Magnitude (a.u.)       :      0.70022
Magnitude (Debye)      :      1.77981

Rotational constants in cm-1:     4.442833     0.827827     0.801812
Rotational constants in MHz : 133192.778359 24817.643245 24037.706717

                             ****ORCA TERMINATED NORMALLY****
TOTAL RUN TIME: 0 days 0 hours 1 minutes 12 seconds 353 msec
