                         Program Version 4.1.2  - RELEASE  -
|  1> #Run DFT-D3 single point of the dimer
|  2> ! wB97X-D3 def2-TZVP TIGHTSCF CHELPG PMODEL PAL8
|  3>
|  4> %base "21-179_DFT_AB"
|  5>
|  6> %scf
|  7> MaxIter 1000
|  8> end
|  9>
| 10> * xyz 0 1
| 11>   C                      0.717877             3.743836             0.867789
| 12>   O                      0.164363             4.019188             -0.425646
| 13>   H                      -0.707830            4.373202             -0.283996
| 14>   H                      0.209102             2.871142             1.298025
| 15>   H                      1.781979             3.422874             0.875334
| 16>   H                      0.556332             4.543657             1.505800
| 17>   C                      -2.964016            5.676245             0.316011
| 18>   O                      -2.929354            4.228165             0.203709
| 19>   H                      -3.026868            3.910916             1.112049
| 20>   H                      -2.118563            6.038027             0.923827
| 21>   H                      -2.965900            6.167290             -0.643154
| 22>   H                      -3.879054            6.167981             0.833028
| 23> *
| 24>
| 25> #Run DFT-D3 single point of the molecule with dimer basis set
| 26> $new_job
| 27> %base "21-179_DFT_A"
| 28> ! wB97X-D3 def2-TZVP TIGHTSCF CHELPG PMODEL
| 29>
| 30> %scf
| 31> MaxIter 1000
| 32> end
| 33>
| 34> * xyz 0 1
| 35>   C                      0.717877             3.743836             0.867789
| 36>   O                      0.164363             4.019188             -0.425646
| 37>   H                      -0.707830            4.373202             -0.283996
| 38>   H                      0.209102             2.871142             1.298025
| 39>   H                      1.781979             3.422874             0.875334
| 40>   H                      0.556332             4.543657             1.505800
| 41>   C                    : -2.964016            5.676245             0.316011
| 42>   O                    : -2.929354            4.228165             0.203709
| 43>   H                    : -3.026868            3.910916             1.112049
| 44>   H                    : -2.118563            6.038027             0.923827
| 45>   H                    : -2.965900            6.167290             -0.643154
| 46>   H                    : -3.879054            6.167981             0.833028
| 47> *
| 48>
| 49> #Run DFT-D3 single point of the particle with dimer basis set
| 50> $new_job
| 51> %base "21-179_DFT_B"
| 52> ! wB97X-D3 def2-TZVP TIGHTSCF CHELPG PMODEL
| 53>
| 54> %scf
| 55> MaxIter 1000
| 56> end
| 57>
| 58> * xyz 0 1
| 59>   C                    : 0.717877             3.743836             0.867789
| 60>   O                    : 0.164363             4.019188             -0.425646
| 61>   H                    : -0.707830            4.373202             -0.283996
| 62>   H                    : 0.209102             2.871142             1.298025
| 63>   H                    : 1.781979             3.422874             0.875334
| 64>   H                    : 0.556332             4.543657             1.505800
| 65>   C                      -2.964016            5.676245             0.316011
| 66>   O                      -2.929354            4.228165             0.203709
| 67>   H                      -3.026868            3.910916             1.112049
| 68>   H                      -2.118563            6.038027             0.923827
| 69>   H                      -2.965900            6.167290             -0.643154
| 70>   H                      -3.879054            6.167981             0.833028
| 71> *
| 72>
| 73>                          ****END OF INPUT****
 Total Charge           Charge          ....    0
 Multiplicity           Mult            ....    1
 Number of Electrons    NEL             ....   36
Dispersion correction           -0.002025656
FINAL SINGLE POINT ENERGY      -231.466716000842
Dispersion correction           -0.000234698
FINAL SINGLE POINT ENERGY      -115.731523379391

CARTESIAN COORDINATES (ANGSTROEM)
---------------------------------
  C      0.717877    3.743836    0.867789
  O      0.164363    4.019188   -0.425646
  H     -0.707830    4.373202   -0.283996
  H      0.209102    2.871142    1.298025
  H      1.781979    3.422874    0.875334
  H      0.556332    4.543657    1.505800
  C     -2.964016    5.676245    0.316011
  O     -2.929354    4.228165    0.203709
  H     -3.026868    3.910916    1.112049
  H     -2.118563    6.038027    0.923827
  H     -2.965900    6.167290   -0.643154
  H     -3.879054    6.167981    0.833028

 Multiplicity           Mult            ....    1
 Number of Electrons    NEL             ....   18
 Basis Dimension        Dim             ....  172

ORBITAL ENERGIES
----------------

  NO   OCC          E(Eh)            E(eV)
   0   2.0000     -19.238689      -523.5113
   1   2.0000     -10.323187      -280.9082
   2   2.0000      -1.128969       -30.7208
   3   2.0000      -0.794266       -21.6131
   4   2.0000      -0.605070       -16.4648
   5   2.0000      -0.536807       -14.6073
   6   2.0000      -0.516448       -14.0533
   7   2.0000      -0.443296       -12.0627
   8   2.0000      -0.376280       -10.2391
   9   0.0000       0.087591         2.3835
  10   0.0000       0.129166         3.5148
  11   0.0000       0.141779         3.8580
  12   0.0000       0.182974         4.9790
  13   0.0000       0.183572         4.9952

MULLIKEN ATOMIC CHARGES
-----------------------
   0 C :   -0.006630
   1 O :   -0.000915
   2 H :    0.007286
   3 H :   -0.000577
   4 H :   -0.000282
   5 H :    0.000502
   6 C :   -0.207577
   7 O :   -0.467859
   8 H :    0.317727
   9 H :    0.116792
  10 H :    0.132520
  11 H :    0.109015
Sum of atomic charges:   -0.0000000

LOEWDIN ATOMIC CHARGES
----------------------
   0 C :   -0.003255
   1 O :   -0.002546
   2 H :   -0.018598
   3 H :   -0.000653
   4 H :   -0.000069
   5 H :   -0.000380
   6 C :   -0.373864
   7 O :   -0.084051
   8 H :    0.173756
   9 H :    0.098236
  10 H :    0.105204
  11 H :    0.106220

  Mayer bond orders larger than 0.1
B(  6-C ,  7-O ) :   0.9918 B(  6-C ,  9-H ) :   0.9747 B(  6-C , 10-H ) :   0.9755
B(  6-C , 11-H ) :   0.9643 B(  7-O ,  8-H ) :   0.8982

Dispersion correction           -0.000281450
FINAL SINGLE POINT ENERGY      -115.730711888614

DIPOLE MOMENT
-------------
                                X             Y             Z
Electronic contribution:      0.09943      -1.96648      -0.40809
Nuclear contribution   :     -0.17479       2.35777       0.99787
                        -----------------------------------------
Total Dipole Moment    :     -0.07536       0.39129       0.58978
                        -----------------------------------------
Magnitude (a.u.)       :      0.71178
Magnitude (Debye)      :      1.80919

Rotational constants in cm-1:     4.282736     0.782702     0.754447
Rotational constants in MHz : 128393.203238 23464.815219 22617.763272

                             ****ORCA TERMINATED NORMALLY****
TOTAL RUN TIME: 0 days 0 hours 1 minutes 7 seconds 458 msec
