                         Program Version 4.1.2  - RELEASE  -
|  1> #Run DFT-D3 single point of the dimer
|  2> ! wB97X-D3 def2-TZVP TIGHTSCF CHELPG PMODEL PAL8
|  3>
|  4> %base "19-54_DFT_AB"
|  5>
|  6> %scf
|  7> MaxIter 1000
|  8> end
|  9>
| 10> * xyz 0 1
| 11>   C                      -5.106868            5.364977             4.076705
| 12>   O                      -4.860362            6.614453             3.509791
| 13>   H                      -4.817998            6.497377             2.536860
| 14>   H                      -6.164157            5.347365             4.411321
| 15>   H                      -4.952286            4.468046             3.431176
| 16>   H                      -4.499261            5.272901             4.938925
| 17>   C                      -7.096855            8.724594             5.735688
| 18>   O                      -7.076103            8.639328             4.278514
| 19>   H                      -6.413366            8.057978             3.966894
| 20>   H                      -8.040028            9.054440             6.056530
| 21>   H                      -6.900714            7.816340             6.248448
| 22>   H                      -6.306886            9.314177             6.101824
| 23> *
| 24>
| 25> #Run DFT-D3 single point of the molecule with dimer basis set
| 26> $new_job
| 27> %base "19-54_DFT_A"
| 28> ! wB97X-D3 def2-TZVP TIGHTSCF CHELPG PMODEL
| 29>
| 30> %scf
| 31> MaxIter 1000
| 32> end
| 33>
| 34> * xyz 0 1
| 35>   C                      -5.106868            5.364977             4.076705
| 36>   O                      -4.860362            6.614453             3.509791
| 37>   H                      -4.817998            6.497377             2.536860
| 38>   H                      -6.164157            5.347365             4.411321
| 39>   H                      -4.952286            4.468046             3.431176
| 40>   H                      -4.499261            5.272901             4.938925
| 41>   C                    : -7.096855            8.724594             5.735688
| 42>   O                    : -7.076103            8.639328             4.278514
| 43>   H                    : -6.413366            8.057978             3.966894
| 44>   H                    : -8.040028            9.054440             6.056530
| 45>   H                    : -6.900714            7.816340             6.248448
| 46>   H                    : -6.306886            9.314177             6.101824
| 47> *
| 48>
| 49> #Run DFT-D3 single point of the particle with dimer basis set
| 50> $new_job
| 51> %base "19-54_DFT_B"
| 52> ! wB97X-D3 def2-TZVP TIGHTSCF CHELPG PMODEL
| 53>
| 54> %scf
| 55> MaxIter 1000
| 56> end
| 57>
| 58> * xyz 0 1
| 59>   C                    : -5.106868            5.364977             4.076705
| 60>   O                    : -4.860362            6.614453             3.509791
| 61>   H                    : -4.817998            6.497377             2.536860
| 62>   H                    : -6.164157            5.347365             4.411321
| 63>   H                    : -4.952286            4.468046             3.431176
| 64>   H                    : -4.499261            5.272901             4.938925
| 65>   C                      -7.096855            8.724594             5.735688
| 66>   O                      -7.076103            8.639328             4.278514
| 67>   H                      -6.413366            8.057978             3.966894
| 68>   H                      -8.040028            9.054440             6.056530
| 69>   H                      -6.900714            7.816340             6.248448
| 70>   H                      -6.306886            9.314177             6.101824
| 71> *
| 72>
| 73>                          ****END OF INPUT****
 Total Charge           Charge          ....    0
 Multiplicity           Mult            ....    1
 Number of Electrons    NEL             ....   36
Dispersion correction           -0.001852670
FINAL SINGLE POINT ENERGY      -231.470079112509
Dispersion correction           -0.000245977
FINAL SINGLE POINT ENERGY      -115.733461878702

CARTESIAN COORDINATES (ANGSTROEM)
---------------------------------
  C     -5.106868    5.364977    4.076705
  O     -4.860362    6.614453    3.509791
  H     -4.817998    6.497377    2.536860
  H     -6.164157    5.347365    4.411321
  H     -4.952286    4.468046    3.431176
  H     -4.499261    5.272901    4.938925
  C     -7.096855    8.724594    5.735688
  O     -7.076103    8.639328    4.278514
  H     -6.413366    8.057978    3.966894
  H     -8.040028    9.054440    6.056530
  H     -6.900714    7.816340    6.248448
  H     -6.306886    9.314177    6.101824

 Multiplicity           Mult            ....    1
 Number of Electrons    NEL             ....   18
 Basis Dimension        Dim             ....  172

ORBITAL ENERGIES
----------------

  NO   OCC          E(Eh)            E(eV)
   0   2.0000     -19.226431      -523.1778
   1   2.0000     -10.305089      -280.4157
   2   2.0000      -1.124573       -30.6012
   3   2.0000      -0.812799       -22.1174
   4   2.0000      -0.614310       -16.7162
   5   2.0000      -0.542518       -14.7627
   6   2.0000      -0.520701       -14.1690
   7   2.0000      -0.439072       -11.9478
   8   2.0000      -0.375616       -10.2210
   9   0.0000       0.070895         1.9292
  10   0.0000       0.140528         3.8240
  11   0.0000       0.141097         3.8394
  12   0.0000       0.171613         4.6698
  13   0.0000       0.191756         5.2179

MULLIKEN ATOMIC CHARGES
-----------------------
   0 C :   -0.001977
   1 O :   -0.001323
   2 H :   -0.000157
   3 H :   -0.001652
   4 H :   -0.000115
   5 H :    0.000157
   6 C :   -0.160996
   7 O :   -0.483694
   8 H :    0.307128
   9 H :    0.124358
  10 H :    0.106821
  11 H :    0.111449
Sum of atomic charges:    0.0000000

LOEWDIN ATOMIC CHARGES
----------------------
   0 C :   -0.003618
   1 O :   -0.010491
   2 H :   -0.000910
   3 H :   -0.001245
   4 H :   -0.000049
   5 H :   -0.000069
   6 C :   -0.331505
   7 O :   -0.085358
   8 H :    0.150030
   9 H :    0.100194
  10 H :    0.092250
  11 H :    0.090771

  Mayer bond orders larger than 0.1
B(  6-C ,  7-O ) :   0.9844 B(  6-C ,  9-H ) :   0.9781 B(  6-C , 10-H ) :   0.9733
B(  6-C , 11-H ) :   0.9787 B(  7-O ,  8-H ) :   0.9147

Dispersion correction           -0.000260703
FINAL SINGLE POINT ENERGY      -115.729255762427

DIPOLE MOMENT
-------------
                                X             Y             Z
Electronic contribution:     -0.12574       0.01883      -1.79964
Nuclear contribution   :      0.55669      -0.37810       2.25320
                        -----------------------------------------
Total Dipole Moment    :      0.43094      -0.35927       0.45356
                        -----------------------------------------
Magnitude (a.u.)       :      0.72146
Magnitude (Debye)      :      1.83381

Rotational constants in cm-1:     4.725935     0.789326     0.759729
Rotational constants in MHz : 141679.963224 23663.386356 22776.106281

                             ****ORCA TERMINATED NORMALLY****
TOTAL RUN TIME: 0 days 0 hours 0 minutes 52 seconds 147 msec
