                         Program Version 4.1.2  - RELEASE  -
|  1> #Run DFT-D3 single point of the dimer
|  2> ! wB97X-D3 def2-TZVP TIGHTSCF CHELPG PMODEL PAL8
|  3>
|  4> %base "17-167_DFT_AB"
|  5>
|  6> %scf
|  7> MaxIter 1000
|  8> end
|  9>
| 10> * xyz 0 1
| 11>   C                      -3.794272            2.293692             8.882736
| 12>   O                      -4.806415            2.716572             7.958103
| 13>   H                      -5.271343            1.986556             7.505574
| 14>   H                      -3.395406            1.318723             8.520923
| 15>   H                      -3.000333            2.959490             8.972679
| 16>   H                      -4.124509            2.106691             9.882683
| 17>   C                      -6.319022            1.751159             5.059910
| 18>   O                      -6.857394            1.523147             6.296902
| 19>   H                      -7.736044            1.859153             6.281797
| 20>   H                      -5.269929            1.724765             5.106357
| 21>   H                      -6.608568            0.985461             4.282150
| 22>   H                      -6.567316            2.808178             4.780656
| 23> *
| 24>
| 25> #Run DFT-D3 single point of the molecule with dimer basis set
| 26> $new_job
| 27> %base "17-167_DFT_A"
| 28> ! wB97X-D3 def2-TZVP TIGHTSCF CHELPG PMODEL
| 29>
| 30> %scf
| 31> MaxIter 1000
| 32> end
| 33>
| 34> * xyz 0 1
| 35>   C                      -3.794272            2.293692             8.882736
| 36>   O                      -4.806415            2.716572             7.958103
| 37>   H                      -5.271343            1.986556             7.505574
| 38>   H                      -3.395406            1.318723             8.520923
| 39>   H                      -3.000333            2.959490             8.972679
| 40>   H                      -4.124509            2.106691             9.882683
| 41>   C                    : -6.319022            1.751159             5.059910
| 42>   O                    : -6.857394            1.523147             6.296902
| 43>   H                    : -7.736044            1.859153             6.281797
| 44>   H                    : -5.269929            1.724765             5.106357
| 45>   H                    : -6.608568            0.985461             4.282150
| 46>   H                    : -6.567316            2.808178             4.780656
| 47> *
| 48>
| 49> #Run DFT-D3 single point of the particle with dimer basis set
| 50> $new_job
| 51> %base "17-167_DFT_B"
| 52> ! wB97X-D3 def2-TZVP TIGHTSCF CHELPG PMODEL
| 53>
| 54> %scf
| 55> MaxIter 1000
| 56> end
| 57>
| 58> * xyz 0 1
| 59>   C                    : -3.794272            2.293692             8.882736
| 60>   O                    : -4.806415            2.716572             7.958103
| 61>   H                    : -5.271343            1.986556             7.505574
| 62>   H                    : -3.395406            1.318723             8.520923
| 63>   H                    : -3.000333            2.959490             8.972679
| 64>   H                    : -4.124509            2.106691             9.882683
| 65>   C                      -6.319022            1.751159             5.059910
| 66>   O                      -6.857394            1.523147             6.296902
| 67>   H                      -7.736044            1.859153             6.281797
| 68>   H                      -5.269929            1.724765             5.106357
| 69>   H                      -6.608568            0.985461             4.282150
| 70>   H                      -6.567316            2.808178             4.780656
| 71> *
| 72>
| 73>                          ****END OF INPUT****
 Total Charge           Charge          ....    0
 Multiplicity           Mult            ....    1
 Number of Electrons    NEL             ....   36
Dispersion correction           -0.001618877
FINAL SINGLE POINT ENERGY      -231.468333689241
Dispersion correction           -0.000262525
FINAL SINGLE POINT ENERGY      -115.730170428349

CARTESIAN COORDINATES (ANGSTROEM)
---------------------------------
  C     -3.794272    2.293692    8.882736
  O     -4.806415    2.716572    7.958103
  H     -5.271343    1.986556    7.505574
  H     -3.395406    1.318723    8.520923
  H     -3.000333    2.959490    8.972679
  H     -4.124509    2.106691    9.882683
  C     -6.319022    1.751159    5.059910
  O     -6.857394    1.523147    6.296902
  H     -7.736044    1.859153    6.281797
  H     -5.269929    1.724765    5.106357
  H     -6.608568    0.985461    4.282150
  H     -6.567316    2.808178    4.780656

 Multiplicity           Mult            ....    1
 Number of Electrons    NEL             ....   18
 Basis Dimension        Dim             ....  172

ORBITAL ENERGIES
----------------

  NO   OCC          E(Eh)            E(eV)
   0   2.0000     -19.229087      -523.2501
   1   2.0000     -10.311277      -280.5841
   2   2.0000      -1.156631       -31.4735
   3   2.0000      -0.795477       -21.6460
   4   2.0000      -0.616818       -16.7845
   5   2.0000      -0.549833       -14.9617
   6   2.0000      -0.539875       -14.6908
   7   2.0000      -0.426902       -11.6166
   8   2.0000      -0.373382       -10.1602
   9   0.0000       0.096704         2.6314
  10   0.0000       0.119596         3.2544
  11   0.0000       0.157181         4.2771
  12   0.0000       0.188305         5.1240
  13   0.0000       0.201185         5.4745

MULLIKEN ATOMIC CHARGES
-----------------------
   0 C :   -0.000403
   1 O :   -0.002026
   2 H :   -0.003046
   3 H :   -0.000010
   4 H :   -0.000032
   5 H :    0.000019
   6 C :   -0.159008
   7 O :   -0.457240
   8 H :    0.313530
   9 H :    0.121696
  10 H :    0.095656
  11 H :    0.090863
Sum of atomic charges:    0.0000000

LOEWDIN ATOMIC CHARGES
----------------------
   0 C :   -0.000435
   1 O :   -0.006397
   2 H :   -0.029767
   3 H :   -0.000014
   4 H :   -0.000012
   5 H :   -0.000008
   6 C :   -0.417218
   7 O :   -0.006685
   8 H :    0.161993
   9 H :    0.097738
  10 H :    0.100127
  11 H :    0.100679

  Mayer bond orders larger than 0.1
B(  6-C ,  7-O ) :   0.9953 B(  6-C ,  9-H ) :   0.9793 B(  6-C , 10-H ) :   0.9650
B(  6-C , 11-H ) :   0.9902 B(  7-O ,  8-H ) :   0.9007

Dispersion correction           -0.000221243
FINAL SINGLE POINT ENERGY      -115.731620861817

DIPOLE MOMENT
-------------
                                X             Y             Z
Electronic contribution:     -0.59694      -0.42536       1.69532
Nuclear contribution   :      0.26238       0.73122      -2.13548
                        -----------------------------------------
Total Dipole Moment    :     -0.33456       0.30586      -0.44016
                        -----------------------------------------
Magnitude (a.u.)       :      0.63184
Magnitude (Debye)      :      1.60600

Rotational constants in cm-1:     4.276243     0.873466     0.853161
Rotational constants in MHz : 128198.541081 26185.844072 25577.117949

                             ****ORCA TERMINATED NORMALLY****
TOTAL RUN TIME: 0 days 0 hours 1 minutes 14 seconds 617 msec
