                         Program Version 4.1.2  - RELEASE  -
|  1> #Run DFT-D3 single point of the dimer
|  2> ! wB97X-D3 def2-TZVP TIGHTSCF CHELPG PMODEL PAL8
|  3>
|  4> %base "5-134_DFT_AB"
|  5>
|  6> %scf
|  7> MaxIter 1000
|  8> end
|  9>
| 10> * xyz 0 1
| 11>   C                      0.074017             4.217301             -5.496732
| 12>   O                      0.563221             5.487481             -5.740181
| 13>   H                      -0.073991            6.071840             -5.294138
| 14>   H                      -0.913316            4.025196             -5.905946
| 15>   H                      0.774878             3.517048             -5.955846
| 16>   H                      -0.044787            3.904843             -4.515804
| 17>   C                      -3.990557            2.539850             -3.509310
| 18>   O                      -2.734901            3.263843             -3.827585
| 19>   H                      -2.021103            2.943012             -3.267228
| 20>   H                      -4.692561            2.625681             -4.328184
| 21>   H                      -3.867786            1.490067             -3.387130
| 22>   H                      -4.497912            2.792353             -2.572181
| 23> *
| 24>
| 25> #Run DFT-D3 single point of the molecule with dimer basis set
| 26> $new_job
| 27> %base "5-134_DFT_A"
| 28> ! wB97X-D3 def2-TZVP TIGHTSCF CHELPG PMODEL
| 29>
| 30> %scf
| 31> MaxIter 1000
| 32> end
| 33>
| 34> * xyz 0 1
| 35>   C                      0.074017             4.217301             -5.496732
| 36>   O                      0.563221             5.487481             -5.740181
| 37>   H                      -0.073991            6.071840             -5.294138
| 38>   H                      -0.913316            4.025196             -5.905946
| 39>   H                      0.774878             3.517048             -5.955846
| 40>   H                      -0.044787            3.904843             -4.515804
| 41>   C                    : -3.990557            2.539850             -3.509310
| 42>   O                    : -2.734901            3.263843             -3.827585
| 43>   H                    : -2.021103            2.943012             -3.267228
| 44>   H                    : -4.692561            2.625681             -4.328184
| 45>   H                    : -3.867786            1.490067             -3.387130
| 46>   H                    : -4.497912            2.792353             -2.572181
| 47> *
| 48>
| 49> #Run DFT-D3 single point of the particle with dimer basis set
| 50> $new_job
| 51> %base "5-134_DFT_B"
| 52> ! wB97X-D3 def2-TZVP TIGHTSCF CHELPG PMODEL
| 53>
| 54> %scf
| 55> MaxIter 1000
| 56> end
| 57>
| 58> * xyz 0 1
| 59>   C                    : 0.074017             4.217301             -5.496732
| 60>   O                    : 0.563221             5.487481             -5.740181
| 61>   H                    : -0.073991            6.071840             -5.294138
| 62>   H                    : -0.913316            4.025196             -5.905946
| 63>   H                    : 0.774878             3.517048             -5.955846
| 64>   H                    : -0.044787            3.904843             -4.515804
| 65>   C                      -3.990557            2.539850             -3.509310
| 66>   O                      -2.734901            3.263843             -3.827585
| 67>   H                      -2.021103            2.943012             -3.267228
| 68>   H                      -4.692561            2.625681             -4.328184
| 69>   H                      -3.867786            1.490067             -3.387130
| 70>   H                      -4.497912            2.792353             -2.572181
| 71> *
| 72>
| 73>                          ****END OF INPUT****
 Total Charge           Charge          ....    0
 Multiplicity           Mult            ....    1
 Number of Electrons    NEL             ....   36
Dispersion correction           -0.001466938
FINAL SINGLE POINT ENERGY      -231.462295939369
Dispersion correction           -0.000222440
FINAL SINGLE POINT ENERGY      -115.731106338688

CARTESIAN COORDINATES (ANGSTROEM)
---------------------------------
  C      0.074017    4.217301   -5.496732
  O      0.563221    5.487481   -5.740181
  H     -0.073991    6.071840   -5.294138
  H     -0.913316    4.025196   -5.905946
  H      0.774878    3.517048   -5.955846
  H     -0.044787    3.904843   -4.515804
  C     -3.990557    2.539850   -3.509310
  O     -2.734901    3.263843   -3.827585
  H     -2.021103    2.943012   -3.267228
  H     -4.692561    2.625681   -4.328184
  H     -3.867786    1.490067   -3.387130
  H     -4.497912    2.792353   -2.572181

 Multiplicity           Mult            ....    1
 Number of Electrons    NEL             ....   18
 Basis Dimension        Dim             ....  172

ORBITAL ENERGIES
----------------

  NO   OCC          E(Eh)            E(eV)
   0   2.0000     -19.234464      -523.3964
   1   2.0000     -10.316071      -280.7146
   2   2.0000      -1.116463       -30.3805
   3   2.0000      -0.806281       -21.9400
   4   2.0000      -0.606173       -16.4948
   5   2.0000      -0.529198       -14.4002
   6   2.0000      -0.519117       -14.1259
   7   2.0000      -0.441210       -12.0059
   8   2.0000      -0.378467       -10.2986
   9   0.0000       0.092398         2.5143
  10   0.0000       0.126437         3.4405
  11   0.0000       0.145844         3.9686
  12   0.0000       0.177824         4.8388
  13   0.0000       0.193645         5.2693

MULLIKEN ATOMIC CHARGES
-----------------------
   0 C :    0.004310
   1 O :   -0.000118
   2 H :   -0.000282
   3 H :   -0.006475
   4 H :   -0.000033
   5 H :   -0.003893
   6 C :   -0.182817
   7 O :   -0.478762
   8 H :    0.315212
   9 H :    0.129730
  10 H :    0.114768
  11 H :    0.108360
Sum of atomic charges:   -0.0000000

LOEWDIN ATOMIC CHARGES
----------------------
   0 C :   -0.007193
   1 O :   -0.000038
   2 H :   -0.000068
   3 H :   -0.005080
   4 H :   -0.000041
   5 H :   -0.002847
   6 C :   -0.338226
   7 O :   -0.110086
   8 H :    0.166222
   9 H :    0.107930
  10 H :    0.091481
  11 H :    0.097949

  Mayer bond orders larger than 0.1
B(  6-C ,  7-O ) :   0.9953 B(  6-C ,  9-H ) :   0.9772 B(  6-C , 10-H ) :   0.9746
B(  6-C , 11-H ) :   0.9675 B(  7-O ,  8-H ) :   0.8981

Dispersion correction           -0.000296156
FINAL SINGLE POINT ENERGY      -115.729622892215

DIPOLE MOMENT
-------------
                                X             Y             Z
Electronic contribution:      1.52065       1.04454      -0.49100
Nuclear contribution   :     -1.61987      -1.60393       0.98952
                        -----------------------------------------
Total Dipole Moment    :     -0.09922      -0.55939       0.49852
                        -----------------------------------------
Magnitude (a.u.)       :      0.75583
Magnitude (Debye)      :      1.92117

Rotational constants in cm-1:     4.560771     0.757101     0.729758
Rotational constants in MHz : 136728.483849 22697.325033 21877.607229

                             ****ORCA TERMINATED NORMALLY****
TOTAL RUN TIME: 0 days 0 hours 0 minutes 52 seconds 580 msec
