                         Program Version 4.1.2  - RELEASE  -
|  1> #Run DFT-D3 single point of the dimer
|  2> ! wB97X-D3 def2-TZVP TIGHTSCF CHELPG PMODEL PAL8
|  3>
|  4> %base "4-106_DFT_AB"
|  5>
|  6> %scf
|  7> MaxIter 1000
|  8> end
|  9>
| 10> * xyz 0 1
| 11>   C                      -2.198624            9.615270             1.579089
| 12>   O                      -2.591249            8.515751             2.357670
| 13>   H                      -3.042198            8.817431             3.150511
| 14>   H                      -2.964768            10.342810            1.400862
| 15>   H                      -1.380174            10.190098            2.092665
| 16>   H                      -1.801923            9.420872             0.610234
| 17>   C                      1.018940             6.694985             -1.032136
| 18>   O                      2.230174             6.372593             -0.305373
| 19>   H                      2.404146             5.410996             -0.444812
| 20>   H                      0.998442             7.759421             -1.303204
| 21>   H                      1.070386             6.146931             -2.024044
| 22>   H                      0.123242             6.356830             -0.452372
| 23> *
| 24>
| 25> #Run DFT-D3 single point of the molecule with dimer basis set
| 26> $new_job
| 27> %base "4-106_DFT_A"
| 28> ! wB97X-D3 def2-TZVP TIGHTSCF CHELPG PMODEL
| 29>
| 30> %scf
| 31> MaxIter 1000
| 32> end
| 33>
| 34> * xyz 0 1
| 35>   C                      -2.198624            9.615270             1.579089
| 36>   O                      -2.591249            8.515751             2.357670
| 37>   H                      -3.042198            8.817431             3.150511
| 38>   H                      -2.964768            10.342810            1.400862
| 39>   H                      -1.380174            10.190098            2.092665
| 40>   H                      -1.801923            9.420872             0.610234
| 41>   C                    : 1.018940             6.694985             -1.032136
| 42>   O                    : 2.230174             6.372593             -0.305373
| 43>   H                    : 2.404146             5.410996             -0.444812
| 44>   H                    : 0.998442             7.759421             -1.303204
| 45>   H                    : 1.070386             6.146931             -2.024044
| 46>   H                    : 0.123242             6.356830             -0.452372
| 47> *
| 48>
| 49> #Run DFT-D3 single point of the particle with dimer basis set
| 50> $new_job
| 51> %base "4-106_DFT_B"
| 52> ! wB97X-D3 def2-TZVP TIGHTSCF CHELPG PMODEL
| 53>
| 54> %scf
| 55> MaxIter 1000
| 56> end
| 57>
| 58> * xyz 0 1
| 59>   C                    : -2.198624            9.615270             1.579089
| 60>   O                    : -2.591249            8.515751             2.357670
| 61>   H                    : -3.042198            8.817431             3.150511
| 62>   H                    : -2.964768            10.342810            1.400862
| 63>   H                    : -1.380174            10.190098            2.092665
| 64>   H                    : -1.801923            9.420872             0.610234
| 65>   C                      1.018940             6.694985             -1.032136
| 66>   O                      2.230174             6.372593             -0.305373
| 67>   H                      2.404146             5.410996             -0.444812
| 68>   H                      0.998442             7.759421             -1.303204
| 69>   H                      1.070386             6.146931             -2.024044
| 70>   H                      0.123242             6.356830             -0.452372
| 71> *
| 72>
| 73>                          ****END OF INPUT****
 Total Charge           Charge          ....    0
 Multiplicity           Mult            ....    1
 Number of Electrons    NEL             ....   36
Dispersion correction           -0.000796903
FINAL SINGLE POINT ENERGY      -231.464619254235
Dispersion correction           -0.000249903
FINAL SINGLE POINT ENERGY      -115.731902822880

CARTESIAN COORDINATES (ANGSTROEM)
---------------------------------
  C     -2.198624    9.615270    1.579089
  O     -2.591249    8.515751    2.357670
  H     -3.042198    8.817431    3.150511
  H     -2.964768   10.342810    1.400862
  H     -1.380174   10.190098    2.092665
  H     -1.801923    9.420872    0.610234
  C      1.018940    6.694985   -1.032136
  O      2.230174    6.372593   -0.305373
  H      2.404146    5.410996   -0.444812
  H      0.998442    7.759421   -1.303204
  H      1.070386    6.146931   -2.024044
  H      0.123242    6.356830   -0.452372

 Multiplicity           Mult            ....    1
 Number of Electrons    NEL             ....   18
 Basis Dimension        Dim             ....  172

ORBITAL ENERGIES
----------------

  NO   OCC          E(Eh)            E(eV)
   0   2.0000     -19.230585      -523.2908
   1   2.0000     -10.323710      -280.9224
   2   2.0000      -1.120507       -30.4906
   3   2.0000      -0.787617       -21.4321
   4   2.0000      -0.596284       -16.2257
   5   2.0000      -0.541578       -14.7371
   6   2.0000      -0.520521       -14.1641
   7   2.0000      -0.429687       -11.6924
   8   2.0000      -0.373157       -10.1541
   9   0.0000       0.085661         2.3310
  10   0.0000       0.110095         2.9958
  11   0.0000       0.142521         3.8782
  12   0.0000       0.167351         4.5539
  13   0.0000       0.189296         5.1510

MULLIKEN ATOMIC CHARGES
-----------------------
   0 C :    0.000196
   1 O :   -0.000020
   2 H :   -0.000001
   3 H :   -0.000000
   4 H :   -0.000026
   5 H :   -0.000253
   6 C :   -0.172387
   7 O :   -0.482586
   8 H :    0.316988
   9 H :    0.127110
  10 H :    0.101796
  11 H :    0.109183
Sum of atomic charges:    0.0000000

LOEWDIN ATOMIC CHARGES
----------------------
   0 C :   -0.000102
   1 O :   -0.000010
   2 H :   -0.000001
   3 H :   -0.000001
   4 H :   -0.000004
   5 H :   -0.000153
   6 C :   -0.370614
   7 O :   -0.120994
   8 H :    0.181505
   9 H :    0.107710
  10 H :    0.102266
  11 H :    0.100397

  Mayer bond orders larger than 0.1
B(  6-C ,  7-O ) :   0.9942 B(  6-C ,  9-H ) :   0.9688 B(  6-C , 10-H ) :   0.9830
B(  6-C , 11-H ) :   0.9682 B(  7-O ,  8-H ) :   0.8965

Dispersion correction           -0.000253575
FINAL SINGLE POINT ENERGY      -115.732360927332

DIPOLE MOMENT
-------------
                                X             Y             Z
Electronic contribution:      1.45853      -0.15208       1.03094
Nuclear contribution   :     -1.83402      -0.30464      -1.43500
                        -----------------------------------------
Total Dipole Moment    :     -0.37549      -0.45672      -0.40407
                        -----------------------------------------
Magnitude (a.u.)       :      0.71614
Magnitude (Debye)      :      1.82028

Rotational constants in cm-1:     4.032696     0.796726     0.773604
Rotational constants in MHz : 120897.181668 23885.241770 23192.064719

                             ****ORCA TERMINATED NORMALLY****
TOTAL RUN TIME: 0 days 0 hours 1 minutes 34 seconds 835 msec
