                         Program Version 4.1.2  - RELEASE  -
|  1> #Run DFT-D3 single point of the dimer
|  2> ! wB97X-D3 def2-TZVP TIGHTSCF CHELPG PMODEL PAL8
|  3>
|  4> %base "18-174_DFT_AB"
|  5>
|  6> %scf
|  7> MaxIter 1000
|  8> end
|  9>
| 10> * xyz 0 1
| 11>   C                      -4.378102            8.116178             -2.250395
| 12>   O                      -3.265974            7.812544             -1.458457
| 13>   H                      -2.526704            7.889954             -2.099805
| 14>   H                      -4.643488            7.304127             -2.928239
| 15>   H                      -5.245410            8.405091             -1.698347
| 16>   H                      -4.190495            8.981392             -2.876955
| 17>   C                      -0.737842            8.074966             -4.224974
| 18>   O                      -0.837398            7.776012             -2.862114
| 19>   H                      -0.171429            7.075582             -2.764346
| 20>   H                      0.352102             8.046983             -4.530430
| 21>   H                      -1.171739            7.360708             -4.842329
| 22>   H                      -1.044718            8.953931             -4.647239
| 23> *
| 24>
| 25> #Run DFT-D3 single point of the molecule with dimer basis set
| 26> $new_job
| 27> %base "18-174_DFT_A"
| 28> ! wB97X-D3 def2-TZVP TIGHTSCF CHELPG PMODEL
| 29>
| 30> %scf
| 31> MaxIter 1000
| 32> end
| 33>
| 34> * xyz 0 1
| 35>   C                      -4.378102            8.116178             -2.250395
| 36>   O                      -3.265974            7.812544             -1.458457
| 37>   H                      -2.526704            7.889954             -2.099805
| 38>   H                      -4.643488            7.304127             -2.928239
| 39>   H                      -5.245410            8.405091             -1.698347
| 40>   H                      -4.190495            8.981392             -2.876955
| 41>   C                    : -0.737842            8.074966             -4.224974
| 42>   O                    : -0.837398            7.776012             -2.862114
| 43>   H                    : -0.171429            7.075582             -2.764346
| 44>   H                    : 0.352102             8.046983             -4.530430
| 45>   H                    : -1.171739            7.360708             -4.842329
| 46>   H                    : -1.044718            8.953931             -4.647239
| 47> *
| 48>
| 49> #Run DFT-D3 single point of the particle with dimer basis set
| 50> $new_job
| 51> %base "18-174_DFT_B"
| 52> ! wB97X-D3 def2-TZVP TIGHTSCF CHELPG PMODEL
| 53>
| 54> %scf
| 55> MaxIter 1000
| 56> end
| 57>
| 58> * xyz 0 1
| 59>   C                    : -4.378102            8.116178             -2.250395
| 60>   O                    : -3.265974            7.812544             -1.458457
| 61>   H                    : -2.526704            7.889954             -2.099805
| 62>   H                    : -4.643488            7.304127             -2.928239
| 63>   H                    : -5.245410            8.405091             -1.698347
| 64>   H                    : -4.190495            8.981392             -2.876955
| 65>   C                      -0.737842            8.074966             -4.224974
| 66>   O                      -0.837398            7.776012             -2.862114
| 67>   H                      -0.171429            7.075582             -2.764346
| 68>   H                      0.352102             8.046983             -4.530430
| 69>   H                      -1.171739            7.360708             -4.842329
| 70>   H                      -1.044718            8.953931             -4.647239
| 71> *
| 72>
| 73>                          ****END OF INPUT****
 Total Charge           Charge          ....    0
 Multiplicity           Mult            ....    1
 Number of Electrons    NEL             ....   36
Dispersion correction           -0.001719591
FINAL SINGLE POINT ENERGY      -231.460991439607
Dispersion correction           -0.000219894
FINAL SINGLE POINT ENERGY      -115.733472291411

CARTESIAN COORDINATES (ANGSTROEM)
---------------------------------
  C     -4.378102    8.116178   -2.250395
  O     -3.265974    7.812544   -1.458457
  H     -2.526704    7.889954   -2.099805
  H     -4.643488    7.304127   -2.928239
  H     -5.245410    8.405091   -1.698347
  H     -4.190495    8.981392   -2.876955
  C     -0.737842    8.074966   -4.224974
  O     -0.837398    7.776012   -2.862114
  H     -0.171429    7.075582   -2.764346
  H      0.352102    8.046983   -4.530430
  H     -1.171739    7.360708   -4.842329
  H     -1.044718    8.953931   -4.647239

 Multiplicity           Mult            ....    1
 Number of Electrons    NEL             ....   18
 Basis Dimension        Dim             ....  172

ORBITAL ENERGIES
----------------

  NO   OCC          E(Eh)            E(eV)
   0   2.0000     -19.236959      -523.4643
   1   2.0000     -10.303376      -280.3691
   2   2.0000      -1.145091       -31.1595
   3   2.0000      -0.805553       -21.9202
   4   2.0000      -0.614497       -16.7213
   5   2.0000      -0.546958       -14.8835
   6   2.0000      -0.540951       -14.7200
   7   2.0000      -0.433666       -11.8007
   8   2.0000      -0.374481       -10.1902
   9   0.0000       0.094902         2.5824
  10   0.0000       0.121156         3.2968
  11   0.0000       0.150826         4.1042
  12   0.0000       0.195290         5.3141
  13   0.0000       0.199296         5.4231

MULLIKEN ATOMIC CHARGES
-----------------------
   0 C :    0.000429
   1 O :    0.001278
   2 H :   -0.013032
   3 H :   -0.000324
   4 H :   -0.000125
   5 H :   -0.000079
   6 C :   -0.176332
   7 O :   -0.455933
   8 H :    0.322699
   9 H :    0.090601
  10 H :    0.107123
  11 H :    0.123694
Sum of atomic charges:    0.0000000

LOEWDIN ATOMIC CHARGES
----------------------
   0 C :   -0.001793
   1 O :   -0.007200
   2 H :   -0.050940
   3 H :   -0.000099
   4 H :   -0.000040
   5 H :   -0.000104
   6 C :   -0.392724
   7 O :   -0.015888
   8 H :    0.186723
   9 H :    0.106320
  10 H :    0.084847
  11 H :    0.090897

  Mayer bond orders larger than 0.1
B(  6-C ,  7-O ) :   0.9860 B(  6-C ,  9-H ) :   0.9865 B(  6-C , 10-H ) :   0.9780
B(  6-C , 11-H ) :   0.9768 B(  7-O ,  8-H ) :   0.8937

Dispersion correction           -0.000218873
FINAL SINGLE POINT ENERGY      -115.720341252446

DIPOLE MOMENT
-------------
                                X             Y             Z
Electronic contribution:     -0.49330      -0.15858       1.96781
Nuclear contribution   :      0.93627      -0.14913      -2.44889
                        -----------------------------------------
Total Dipole Moment    :      0.44297      -0.30770      -0.48108
                        -----------------------------------------
Magnitude (a.u.)       :      0.72273
Magnitude (Debye)      :      1.83704

Rotational constants in cm-1:     4.660019     0.843276     0.809886
Rotational constants in MHz : 139703.867612 25280.774437 24279.765195

                             ****ORCA TERMINATED NORMALLY****
TOTAL RUN TIME: 0 days 0 hours 1 minutes 2 seconds 335 msec
