                         Program Version 4.1.2  - RELEASE  -
|  1> #Run DFT-D3 single point of the dimer
|  2> ! wB97X-D3 def2-TZVP TIGHTSCF CHELPG PMODEL PAL8
|  3>
|  4> %base "20-127_DFT_AB"
|  5>
|  6> %scf
|  7> MaxIter 1000
|  8> end
|  9>
| 10> * xyz 0 1
| 11>   C                      -10.407727           0.770466             3.631397
| 12>   O                      -9.562463            -0.223850            3.141265
| 13>   H                      -9.421107            -0.852578            3.813185
| 14>   H                      -11.475602           0.633338             3.382502
| 15>   H                      -10.279834           0.901651             4.710946
| 16>   H                      -10.139632           1.661452             3.115065
| 17>   C                      -7.614321            -1.482426            -2.334530
| 18>   O                      -8.009043            -0.873774            -1.125969
| 19>   H                      -7.748097            0.081051             -1.170580
| 20>   H                      -7.865185            -0.945914            -3.205777
| 21>   H                      -6.470210            -1.582579            -2.381032
| 22>   H                      -7.997989            -2.487817            -2.512743
| 23> *
| 24>
| 25> #Run DFT-D3 single point of the molecule with dimer basis set
| 26> $new_job
| 27> %base "20-127_DFT_A"
| 28> ! wB97X-D3 def2-TZVP TIGHTSCF CHELPG PMODEL
| 29>
| 30> %scf
| 31> MaxIter 1000
| 32> end
| 33>
| 34> * xyz 0 1
| 35>   C                      -10.407727           0.770466             3.631397
| 36>   O                      -9.562463            -0.223850            3.141265
| 37>   H                      -9.421107            -0.852578            3.813185
| 38>   H                      -11.475602           0.633338             3.382502
| 39>   H                      -10.279834           0.901651             4.710946
| 40>   H                      -10.139632           1.661452             3.115065
| 41>   C                    : -7.614321            -1.482426            -2.334530
| 42>   O                    : -8.009043            -0.873774            -1.125969
| 43>   H                    : -7.748097            0.081051             -1.170580
| 44>   H                    : -7.865185            -0.945914            -3.205777
| 45>   H                    : -6.470210            -1.582579            -2.381032
| 46>   H                    : -7.997989            -2.487817            -2.512743
| 47> *
| 48>
| 49> #Run DFT-D3 single point of the particle with dimer basis set
| 50> $new_job
| 51> %base "20-127_DFT_B"
| 52> ! wB97X-D3 def2-TZVP TIGHTSCF CHELPG PMODEL
| 53>
| 54> %scf
| 55> MaxIter 1000
| 56> end
| 57>
| 58> * xyz 0 1
| 59>   C                    : -10.407727           0.770466             3.631397
| 60>   O                    : -9.562463            -0.223850            3.141265
| 61>   H                    : -9.421107            -0.852578            3.813185
| 62>   H                    : -11.475602           0.633338             3.382502
| 63>   H                    : -10.279834           0.901651             4.710946
| 64>   H                    : -10.139632           1.661452             3.115065
| 65>   C                      -7.614321            -1.482426            -2.334530
| 66>   O                      -8.009043            -0.873774            -1.125969
| 67>   H                      -7.748097            0.081051             -1.170580
| 68>   H                      -7.865185            -0.945914            -3.205777
| 69>   H                      -6.470210            -1.582579            -2.381032
| 70>   H                      -7.997989            -2.487817            -2.512743
| 71> *
| 72>
| 73>                          ****END OF INPUT****
 Total Charge           Charge          ....    0
 Multiplicity           Mult            ....    1
 Number of Electrons    NEL             ....   36
Dispersion correction           -0.000611062
FINAL SINGLE POINT ENERGY      -231.464023112188
Dispersion correction           -0.000235499
FINAL SINGLE POINT ENERGY      -115.734137630126

CARTESIAN COORDINATES (ANGSTROEM)
---------------------------------
  C    -10.407727    0.770466    3.631397
  O     -9.562463   -0.223850    3.141265
  H     -9.421107   -0.852578    3.813185
  H    -11.475602    0.633338    3.382502
  H    -10.279834    0.901651    4.710946
  H    -10.139632    1.661452    3.115065
  C     -7.614321   -1.482426   -2.334530
  O     -8.009043   -0.873774   -1.125969
  H     -7.748097    0.081051   -1.170580
  H     -7.865185   -0.945914   -3.205777
  H     -6.470210   -1.582579   -2.381032
  H     -7.997989   -2.487817   -2.512743

 Multiplicity           Mult            ....    1
 Number of Electrons    NEL             ....   18
 Basis Dimension        Dim             ....  172

ORBITAL ENERGIES
----------------

  NO   OCC          E(Eh)            E(eV)
   0   2.0000     -19.236117      -523.4413
   1   2.0000     -10.313759      -280.6517
   2   2.0000      -1.133460       -30.8430
   3   2.0000      -0.794610       -21.6224
   4   2.0000      -0.612310       -16.6618
   5   2.0000      -0.533371       -14.5138
   6   2.0000      -0.531146       -14.4532
   7   2.0000      -0.434346       -11.8192
   8   2.0000      -0.371311       -10.1039
   9   0.0000       0.091921         2.5013
  10   0.0000       0.111916         3.0454
  11   0.0000       0.149173         4.0592
  12   0.0000       0.171305         4.6614
  13   0.0000       0.201313         5.4780

MULLIKEN ATOMIC CHARGES
-----------------------
   0 C :   -0.000076
   1 O :   -0.000039
   2 H :   -0.000007
   3 H :    0.000004
   4 H :    0.000001
   5 H :    0.000006
   6 C :   -0.170205
   7 O :   -0.472498
   8 H :    0.321253
   9 H :    0.109704
  10 H :    0.091268
  11 H :    0.120588
Sum of atomic charges:    0.0000000

LOEWDIN ATOMIC CHARGES
----------------------
   0 C :   -0.000016
   1 O :   -0.000045
   2 H :   -0.000007
   3 H :   -0.000000
   4 H :   -0.000000
   5 H :   -0.000001
   6 C :   -0.398050
   7 O :   -0.085524
   8 H :    0.190530
   9 H :    0.084568
  10 H :    0.101143
  11 H :    0.107404

  Mayer bond orders larger than 0.1
B(  6-C ,  7-O ) :   1.0045 B(  6-C ,  9-H ) :   0.9738 B(  6-C , 10-H ) :   0.9798
B(  6-C , 11-H ) :   0.9712 B(  7-O ,  8-H ) :   0.8908

Dispersion correction           -0.000252437
FINAL SINGLE POINT ENERGY      -115.730758945389

DIPOLE MOMENT
-------------
                                X             Y             Z
Electronic contribution:     -0.76248       0.68606       1.67836
Nuclear contribution   :      1.04473      -0.32087      -2.19990
                        -----------------------------------------
Total Dipole Moment    :      0.28225       0.36519      -0.52154
                        -----------------------------------------
Magnitude (a.u.)       :      0.69644
Magnitude (Debye)      :      1.77022

Rotational constants in cm-1:     4.359882     0.821303     0.792282
Rotational constants in MHz : 130705.980044 24622.041090 23752.004773

                             ****ORCA TERMINATED NORMALLY****
TOTAL RUN TIME: 0 days 0 hours 0 minutes 51 seconds 311 msec
