                         Program Version 4.1.2  - RELEASE  -
|  1> #Run DFT-D3 single point of the dimer
|  2> ! wB97X-D3 def2-TZVP TIGHTSCF CHELPG PMODEL PAL8
|  3>
|  4> %base "2-89_DFT_AB"
|  5>
|  6> %scf
|  7> MaxIter 1000
|  8> end
|  9>
| 10> * xyz 0 1
| 11>   C                      5.076919             -10.100200           -4.491884
| 12>   O                      4.875564             -8.751591            -4.271763
| 13>   H                      5.776038             -8.429535            -4.025102
| 14>   H                      4.079127             -10.597135           -4.605720
| 15>   H                      5.674618             -10.291725           -5.409982
| 16>   H                      5.579315             -10.598143           -3.609433
| 17>   C                      8.747620             -8.174031            -4.794957
| 18>   O                      9.685600             -9.213178            -4.489705
| 19>   H                      9.803982             -9.713573            -5.280415
| 20>   H                      7.703945             -8.576301            -4.749751
| 21>   H                      8.705569             -7.484934            -3.953919
| 22>   H                      8.888118             -7.622195            -5.692047
| 23> *
| 24>
| 25> #Run DFT-D3 single point of the molecule with dimer basis set
| 26> $new_job
| 27> %base "2-89_DFT_A"
| 28> ! wB97X-D3 def2-TZVP TIGHTSCF CHELPG PMODEL
| 29>
| 30> %scf
| 31> MaxIter 1000
| 32> end
| 33>
| 34> * xyz 0 1
| 35>   C                      5.076919             -10.100200           -4.491884
| 36>   O                      4.875564             -8.751591            -4.271763
| 37>   H                      5.776038             -8.429535            -4.025102
| 38>   H                      4.079127             -10.597135           -4.605720
| 39>   H                      5.674618             -10.291725           -5.409982
| 40>   H                      5.579315             -10.598143           -3.609433
| 41>   C                    : 8.747620             -8.174031            -4.794957
| 42>   O                    : 9.685600             -9.213178            -4.489705
| 43>   H                    : 9.803982             -9.713573            -5.280415
| 44>   H                    : 7.703945             -8.576301            -4.749751
| 45>   H                    : 8.705569             -7.484934            -3.953919
| 46>   H                    : 8.888118             -7.622195            -5.692047
| 47> *
| 48>
| 49> #Run DFT-D3 single point of the particle with dimer basis set
| 50> $new_job
| 51> %base "2-89_DFT_B"
| 52> ! wB97X-D3 def2-TZVP TIGHTSCF CHELPG PMODEL
| 53>
| 54> %scf
| 55> MaxIter 1000
| 56> end
| 57>
| 58> * xyz 0 1
| 59>   C                    : 5.076919             -10.100200           -4.491884
| 60>   O                    : 4.875564             -8.751591            -4.271763
| 61>   H                    : 5.776038             -8.429535            -4.025102
| 62>   H                    : 4.079127             -10.597135           -4.605720
| 63>   H                    : 5.674618             -10.291725           -5.409982
| 64>   H                    : 5.579315             -10.598143           -3.609433
| 65>   C                      8.747620             -8.174031            -4.794957
| 66>   O                      9.685600             -9.213178            -4.489705
| 67>   H                      9.803982             -9.713573            -5.280415
| 68>   H                      7.703945             -8.576301            -4.749751
| 69>   H                      8.705569             -7.484934            -3.953919
| 70>   H                      8.888118             -7.622195            -5.692047
| 71> *
| 72>
| 73>                          ****END OF INPUT****
 Total Charge           Charge          ....    0
 Multiplicity           Mult            ....    1
 Number of Electrons    NEL             ....   36
Dispersion correction           -0.001622943
FINAL SINGLE POINT ENERGY      -231.467717504483
Dispersion correction           -0.000225950
FINAL SINGLE POINT ENERGY      -115.734080377539

CARTESIAN COORDINATES (ANGSTROEM)
---------------------------------
  C      5.076919  -10.100200   -4.491884
  O      4.875564   -8.751591   -4.271763
  H      5.776038   -8.429535   -4.025102
  H      4.079127  -10.597135   -4.605720
  H      5.674618  -10.291725   -5.409982
  H      5.579315  -10.598143   -3.609433
  C      8.747620   -8.174031   -4.794957
  O      9.685600   -9.213178   -4.489705
  H      9.803982   -9.713573   -5.280415
  H      7.703945   -8.576301   -4.749751
  H      8.705569   -7.484934   -3.953919
  H      8.888118   -7.622195   -5.692047

 Multiplicity           Mult            ....    1
 Number of Electrons    NEL             ....   18
 Basis Dimension        Dim             ....  172

ORBITAL ENERGIES
----------------

  NO   OCC          E(Eh)            E(eV)
   0   2.0000     -19.231206      -523.3077
   1   2.0000     -10.313022      -280.6316
   2   2.0000      -1.135420       -30.8964
   3   2.0000      -0.800166       -21.7736
   4   2.0000      -0.611772       -16.6472
   5   2.0000      -0.539769       -14.6879
   6   2.0000      -0.522606       -14.2208
   7   2.0000      -0.440004       -11.9731
   8   2.0000      -0.374586       -10.1930
   9   0.0000       0.085865         2.3365
  10   0.0000       0.122988         3.3467
  11   0.0000       0.147664         4.0181
  12   0.0000       0.185908         5.0588
  13   0.0000       0.192692         5.2434

MULLIKEN ATOMIC CHARGES
-----------------------
   0 C :    0.005407
   1 O :   -0.001177
   2 H :   -0.001727
   3 H :    0.000328
   4 H :   -0.000769
   5 H :   -0.000536
   6 C :   -0.172661
   7 O :   -0.467098
   8 H :    0.310699
   9 H :    0.089675
  10 H :    0.119737
  11 H :    0.118122
Sum of atomic charges:    0.0000000

LOEWDIN ATOMIC CHARGES
----------------------
   0 C :   -0.004335
   1 O :   -0.001096
   2 H :   -0.009665
   3 H :   -0.000023
   4 H :   -0.001316
   5 H :   -0.000197
   6 C :   -0.371564
   7 O :   -0.076591
   8 H :    0.156594
   9 H :    0.108797
  10 H :    0.109706
  11 H :    0.089690

  Mayer bond orders larger than 0.1
B(  6-C ,  7-O ) :   1.0001 B(  6-C ,  9-H ) :   0.9745 B(  6-C , 10-H ) :   0.9771
B(  6-C , 11-H ) :   0.9707 B(  7-O ,  8-H ) :   0.9057

Dispersion correction           -0.000256673
FINAL SINGLE POINT ENERGY      -115.733041102168

DIPOLE MOMENT
-------------
                                X             Y             Z
Electronic contribution:      1.36489      -1.25225       0.36051
Nuclear contribution   :     -1.65953       1.36495      -0.97651
                        -----------------------------------------
Total Dipole Moment    :     -0.29464       0.11270      -0.61601
                        -----------------------------------------
Magnitude (a.u.)       :      0.69208
Magnitude (Debye)      :      1.75913

Rotational constants in cm-1:     4.415186     0.809650     0.783249
Rotational constants in MHz : 132363.953782 24272.697953 23481.220968

                             ****ORCA TERMINATED NORMALLY****
TOTAL RUN TIME: 0 days 0 hours 6 minutes 10 seconds 27 msec
