                         Program Version 4.1.2  - RELEASE  -
|  1> #Run DFT-D3 single point of the dimer
|  2> ! wB97X-D3 def2-TZVP TIGHTSCF CHELPG PMODEL PAL8
|  3>
|  4> %base "5-24_DFT_AB"
|  5>
|  6> %scf
|  7> MaxIter 1000
|  8> end
|  9>
| 10> * xyz 0 1
| 11>   C                      2.739132             -3.942480            -1.008213
| 12>   O                      1.753076             -3.898102            -0.067553
| 13>   H                      2.322324             -4.076974            0.640020
| 14>   H                      3.466281             -4.735064            -0.636827
| 15>   H                      2.402265             -4.144417            -2.020121
| 16>   H                      3.256188             -3.012980            -0.955926
| 17>   C                      -1.182547            -1.017619            -0.748972
| 18>   O                      -0.469435            -1.907887            -1.528800
| 19>   H                      0.101341             -2.406095            -0.963527
| 20>   H                      -1.822975            -1.490088            0.064077
| 21>   H                      -0.510902            -0.339519            -0.140407
| 22>   H                      -1.881184            -0.325620            -1.371580
| 23> *
| 24>
| 25> #Run DFT-D3 single point of the molecule with dimer basis set
| 26> $new_job
| 27> %base "5-24_DFT_A"
| 28> ! wB97X-D3 def2-TZVP TIGHTSCF CHELPG PMODEL
| 29>
| 30> %scf
| 31> MaxIter 1000
| 32> end
| 33>
| 34> * xyz 0 1
| 35>   C                      2.739132             -3.942480            -1.008213
| 36>   O                      1.753076             -3.898102            -0.067553
| 37>   H                      2.322324             -4.076974            0.640020
| 38>   H                      3.466281             -4.735064            -0.636827
| 39>   H                      2.402265             -4.144417            -2.020121
| 40>   H                      3.256188             -3.012980            -0.955926
| 41>   C                    : -1.182547            -1.017619            -0.748972
| 42>   O                    : -0.469435            -1.907887            -1.528800
| 43>   H                    : 0.101341             -2.406095            -0.963527
| 44>   H                    : -1.822975            -1.490088            0.064077
| 45>   H                    : -0.510902            -0.339519            -0.140407
| 46>   H                    : -1.881184            -0.325620            -1.371580
| 47> *
| 48>
| 49> #Run DFT-D3 single point of the particle with dimer basis set
| 50> $new_job
| 51> %base "5-24_DFT_B"
| 52> ! wB97X-D3 def2-TZVP TIGHTSCF CHELPG PMODEL
| 53>
| 54> %scf
| 55> MaxIter 1000
| 56> end
| 57>
| 58> * xyz 0 1
| 59>   C                    : 2.739132             -3.942480            -1.008213
| 60>   O                    : 1.753076             -3.898102            -0.067553
| 61>   H                    : 2.322324             -4.076974            0.640020
| 62>   H                    : 3.466281             -4.735064            -0.636827
| 63>   H                    : 2.402265             -4.144417            -2.020121
| 64>   H                    : 3.256188             -3.012980            -0.955926
| 65>   C                      -1.182547            -1.017619            -0.748972
| 66>   O                      -0.469435            -1.907887            -1.528800
| 67>   H                      0.101341             -2.406095            -0.963527
| 68>   H                      -1.822975            -1.490088            0.064077
| 69>   H                      -0.510902            -0.339519            -0.140407
| 70>   H                      -1.881184            -0.325620            -1.371580
| 71> *
| 72>
| 73>                          ****END OF INPUT****
 Total Charge           Charge          ....    0
 Multiplicity           Mult            ....    1
 Number of Electrons    NEL             ....   36
Dispersion correction           -0.001397012
FINAL SINGLE POINT ENERGY      -231.456900155387
Dispersion correction           -0.000170215
FINAL SINGLE POINT ENERGY      -115.720077727227

CARTESIAN COORDINATES (ANGSTROEM)
---------------------------------
  C      2.739132   -3.942480   -1.008213
  O      1.753076   -3.898102   -0.067553
  H      2.322324   -4.076974    0.640020
  H      3.466281   -4.735064   -0.636827
  H      2.402265   -4.144417   -2.020121
  H      3.256188   -3.012980   -0.955926
  C     -1.182547   -1.017619   -0.748972
  O     -0.469435   -1.907887   -1.528800
  H      0.101341   -2.406095   -0.963527
  H     -1.822975   -1.490088    0.064077
  H     -0.510902   -0.339519   -0.140407
  H     -1.881184   -0.325620   -1.371580

 Multiplicity           Mult            ....    1
 Number of Electrons    NEL             ....   18
 Basis Dimension        Dim             ....  172

ORBITAL ENERGIES
----------------

  NO   OCC          E(Eh)            E(eV)
   0   2.0000     -19.235880      -523.4349
   1   2.0000     -10.327811      -281.0340
   2   2.0000      -1.153587       -31.3907
   3   2.0000      -0.786993       -21.4152
   4   2.0000      -0.623127       -16.9562
   5   2.0000      -0.532979       -14.5031
   6   2.0000      -0.529404       -14.4058
   7   2.0000      -0.432229       -11.7616
   8   2.0000      -0.371486       -10.1086
   9   0.0000       0.073176         1.9912
  10   0.0000       0.126208         3.4343
  11   0.0000       0.150426         4.0933
  12   0.0000       0.167383         4.5547
  13   0.0000       0.192647         5.2422

MULLIKEN ATOMIC CHARGES
-----------------------
   0 C :   -0.002014
   1 O :    0.000269
   2 H :    0.000050
   3 H :   -0.000005
   4 H :    0.000093
   5 H :    0.000052
   6 C :   -0.172106
   7 O :   -0.450452
   8 H :    0.314555
   9 H :    0.097310
  10 H :    0.093157
  11 H :    0.119090
Sum of atomic charges:    0.0000000

LOEWDIN ATOMIC CHARGES
----------------------
   0 C :   -0.002928
   1 O :   -0.005208
   2 H :   -0.000223
   3 H :   -0.000052
   4 H :   -0.000247
   5 H :   -0.000219
   6 C :   -0.431293
   7 O :   -0.037618
   8 H :    0.166808
   9 H :    0.096275
  10 H :    0.094740
  11 H :    0.119965

  Mayer bond orders larger than 0.1
B(  6-C ,  7-O ) :   1.0039 B(  6-C ,  9-H ) :   0.9716 B(  6-C , 10-H ) :   0.9754
B(  6-C , 11-H ) :   0.9688 B(  7-O ,  8-H ) :   0.9018

Dispersion correction           -0.000256740
FINAL SINGLE POINT ENERGY      -115.730760828898

DIPOLE MOMENT
-------------
                                X             Y             Z
Electronic contribution:      0.94071      -1.25982      -1.29444
Nuclear contribution   :     -0.82564       1.25925       1.93450
                        -----------------------------------------
Total Dipole Moment    :      0.11507      -0.00057       0.64006
                        -----------------------------------------
Magnitude (a.u.)       :      0.65032
Magnitude (Debye)      :      1.65298

Rotational constants in cm-1:     4.146006     0.845325     0.806688
Rotational constants in MHz : 124294.143550 25342.205818 24183.905014

                             ****ORCA TERMINATED NORMALLY****
TOTAL RUN TIME: 0 days 0 hours 0 minutes 59 seconds 881 msec
