                         Program Version 4.1.2  - RELEASE  -
|  1> #Run DFT-D3 single point of the dimer
|  2> ! wB97X-D3 def2-TZVP TIGHTSCF CHELPG PMODEL PAL8
|  3>
|  4> %base "7-117_DFT_AB"
|  5>
|  6> %scf
|  7> MaxIter 1000
|  8> end
|  9>
| 10> * xyz 0 1
| 11>   C                      8.231847             4.812904             2.218231
| 12>   O                      7.857317             4.358539             3.507066
| 13>   H                      8.511085             3.740002             3.820354
| 14>   H                      9.259510             4.563071             1.868465
| 15>   H                      7.425748             4.418321             1.520043
| 16>   H                      8.132544             5.888729             2.119775
| 17>   C                      4.789831             4.842195             4.673636
| 18>   O                      4.834256             4.522513             3.376665
| 19>   H                      5.779525             4.363818             3.227645
| 20>   H                      3.778847             5.077454             4.981349
| 21>   H                      5.025754             4.006608             5.322962
| 22>   H                      5.505143             5.687903             4.910589
| 23> *
| 24>
| 25> #Run DFT-D3 single point of the molecule with dimer basis set
| 26> $new_job
| 27> %base "7-117_DFT_A"
| 28> ! wB97X-D3 def2-TZVP TIGHTSCF CHELPG PMODEL
| 29>
| 30> %scf
| 31> MaxIter 1000
| 32> end
| 33>
| 34> * xyz 0 1
| 35>   C                      8.231847             4.812904             2.218231
| 36>   O                      7.857317             4.358539             3.507066
| 37>   H                      8.511085             3.740002             3.820354
| 38>   H                      9.259510             4.563071             1.868465
| 39>   H                      7.425748             4.418321             1.520043
| 40>   H                      8.132544             5.888729             2.119775
| 41>   C                    : 4.789831             4.842195             4.673636
| 42>   O                    : 4.834256             4.522513             3.376665
| 43>   H                    : 5.779525             4.363818             3.227645
| 44>   H                    : 3.778847             5.077454             4.981349
| 45>   H                    : 5.025754             4.006608             5.322962
| 46>   H                    : 5.505143             5.687903             4.910589
| 47> *
| 48>
| 49> #Run DFT-D3 single point of the particle with dimer basis set
| 50> $new_job
| 51> %base "7-117_DFT_B"
| 52> ! wB97X-D3 def2-TZVP TIGHTSCF CHELPG PMODEL
| 53>
| 54> %scf
| 55> MaxIter 1000
| 56> end
| 57>
| 58> * xyz 0 1
| 59>   C                    : 8.231847             4.812904             2.218231
| 60>   O                    : 7.857317             4.358539             3.507066
| 61>   H                    : 8.511085             3.740002             3.820354
| 62>   H                    : 9.259510             4.563071             1.868465
| 63>   H                    : 7.425748             4.418321             1.520043
| 64>   H                    : 8.132544             5.888729             2.119775
| 65>   C                      4.789831             4.842195             4.673636
| 66>   O                      4.834256             4.522513             3.376665
| 67>   H                      5.779525             4.363818             3.227645
| 68>   H                      3.778847             5.077454             4.981349
| 69>   H                      5.025754             4.006608             5.322962
| 70>   H                      5.505143             5.687903             4.910589
| 71> *
| 72>
| 73>                          ****END OF INPUT****
 Total Charge           Charge          ....    0
 Multiplicity           Mult            ....    1
 Number of Electrons    NEL             ....   36
Dispersion correction           -0.001947477
FINAL SINGLE POINT ENERGY      -231.470017715578
Dispersion correction           -0.000266412
FINAL SINGLE POINT ENERGY      -115.732217493510

CARTESIAN COORDINATES (ANGSTROEM)
---------------------------------
  C      8.231847    4.812904    2.218231
  O      7.857317    4.358539    3.507066
  H      8.511085    3.740002    3.820354
  H      9.259510    4.563071    1.868465
  H      7.425748    4.418321    1.520043
  H      8.132544    5.888729    2.119775
  C      4.789831    4.842195    4.673636
  O      4.834256    4.522513    3.376665
  H      5.779525    4.363818    3.227645
  H      3.778847    5.077454    4.981349
  H      5.025754    4.006608    5.322962
  H      5.505143    5.687903    4.910589

 Multiplicity           Mult            ....    1
 Number of Electrons    NEL             ....   18
 Basis Dimension        Dim             ....  172

ORBITAL ENERGIES
----------------

  NO   OCC          E(Eh)            E(eV)
   0   2.0000     -19.234372      -523.3939
   1   2.0000     -10.308043      -280.4961
   2   2.0000      -1.166706       -31.7477
   3   2.0000      -0.788529       -21.4570
   4   2.0000      -0.624577       -16.9956
   5   2.0000      -0.554240       -15.0816
   6   2.0000      -0.537605       -14.6290
   7   2.0000      -0.432121       -11.7586
   8   2.0000      -0.368898       -10.0382
   9   0.0000       0.067265         1.8304
  10   0.0000       0.133463         3.6317
  11   0.0000       0.156936         4.2705
  12   0.0000       0.161179         4.3859
  13   0.0000       0.187030         5.0893

MULLIKEN ATOMIC CHARGES
-----------------------
   0 C :   -0.003815
   1 O :   -0.001962
   2 H :   -0.000152
   3 H :   -0.000048
   4 H :    0.000222
   5 H :    0.000451
   6 C :   -0.161360
   7 O :   -0.440770
   8 H :    0.318031
   9 H :    0.110414
  10 H :    0.093530
  11 H :    0.085459
Sum of atomic charges:    0.0000000

LOEWDIN ATOMIC CHARGES
----------------------
   0 C :   -0.006847
   1 O :   -0.011524
   2 H :   -0.000487
   3 H :   -0.000111
   4 H :   -0.001861
   5 H :   -0.000245
   6 C :   -0.454860
   7 O :   -0.008606
   8 H :    0.192590
   9 H :    0.104861
  10 H :    0.089134
  11 H :    0.097956

  Mayer bond orders larger than 0.1
B(  6-C ,  7-O ) :   1.0076 B(  6-C ,  9-H ) :   0.9738 B(  6-C , 10-H ) :   0.9801
B(  6-C , 11-H ) :   0.9800 B(  7-O ,  8-H ) :   0.9046

Dispersion correction           -0.000198086
FINAL SINGLE POINT ENERGY      -115.729791345357

DIPOLE MOMENT
-------------
                                X             Y             Z
Electronic contribution:     -0.13959      -0.41684      -1.87333
Nuclear contribution   :      0.67932       0.40567       2.21408
                        -----------------------------------------
Total Dipole Moment    :      0.53973      -0.01117       0.34075
                        -----------------------------------------
Magnitude (a.u.)       :      0.63839
Magnitude (Debye)      :      1.62266

Rotational constants in cm-1:     4.228231     0.916407     0.875575
Rotational constants in MHz : 126759.183605 27473.202489 26249.068342

                             ****ORCA TERMINATED NORMALLY****
TOTAL RUN TIME: 0 days 0 hours 1 minutes 15 seconds 83 msec
