                         Program Version 4.1.2  - RELEASE  -
|  1> #Run DFT-D3 single point of the dimer
|  2> ! wB97X-D3 def2-TZVP TIGHTSCF  CHELPG PAL8
|  3>
|  4> %base "189_charges"
|  5>
|  6> %scf
|  7> MaxIter 1000
|  8> end
|  9> %output
| 10>   Print[ P_Mayer ] 1
| 11>   Print[ P_NatPop ] 1
| 12>   Print[ P_Hirshfeld ] 1
| 13>   Print[ P_Mulliken ] 1
| 14>   Print [ P_Loewdin ] 1
| 15> end
| 16>
| 17> * xyz 0 1
| 18>   C                      -4.963201            6.043572             4.798582
| 19>   O                      -3.741734            6.712453             5.057436
| 20>   H                      -3.838710            7.364780             5.739488
| 21>   H                      -4.985850            5.149144             5.392167
| 22>   H                      -5.853887            6.681661             5.013477
| 23>   H                      -5.052373            5.531196             3.810485
| 24> *
| 25>
| 26>                          ****END OF INPUT****

CARTESIAN COORDINATES (ANGSTROEM)
---------------------------------
  C     -4.963201    6.043572    4.798582
  O     -3.741734    6.712453    5.057436
  H     -3.838710    7.364780    5.739488
  H     -4.985850    5.149144    5.392167
  H     -5.853887    6.681661    5.013477
  H     -5.052373    5.531196    3.810485

 Total Charge           Charge          ....    0
 Multiplicity           Mult            ....    1
 Number of Electrons    NEL             ....   18
 Basis Dimension        Dim             ....   86

ORBITAL ENERGIES
----------------

  NO   OCC          E(Eh)            E(eV)
   0   2.0000     -19.228214      -523.2263
   1   2.0000     -10.316388      -280.7232
   2   2.0000      -1.135317       -30.8935
   3   2.0000      -0.798402       -21.7256
   4   2.0000      -0.611217       -16.6321
   5   2.0000      -0.545558       -14.8454
   6   2.0000      -0.523966       -14.2578
   7   2.0000      -0.429671       -11.6919
   8   2.0000      -0.368508       -10.0276
   9   0.0000       0.116561         3.1718
  10   0.0000       0.150398         4.0925
  11   0.0000       0.199425         5.4266
  12   0.0000       0.208452         5.6723
  13   0.0000       0.226991         6.1767

MULLIKEN ATOMIC CHARGES
-----------------------
   0 C :   -0.166435
   1 O :   -0.479078
   2 H :    0.317616
   3 H :    0.106369
   4 H :    0.105701
   5 H :    0.115828
Sum of atomic charges:    0.0000000

LOEWDIN ATOMIC CHARGES
----------------------
   0 C :   -0.390556
   1 O :   -0.076334
   2 H :    0.161746
   3 H :    0.091910
   4 H :    0.101100
   5 H :    0.112134

  Mayer bond orders larger than 0.1
B(  0-C ,  1-O ) :   1.0021 B(  0-C ,  3-H ) :   0.9802 B(  0-C ,  4-H ) :   0.9793
B(  0-C ,  5-H ) :   0.9708 B(  1-O ,  2-H ) :   0.8974

Dispersion correction           -0.000258797
FINAL SINGLE POINT ENERGY      -115.728762585245

DIPOLE MOMENT
-------------
                                X             Y             Z
Electronic contribution:      1.62223       0.92854       0.20533
Nuclear contribution   :     -2.17973      -0.79553       0.14088
                        -----------------------------------------
Total Dipole Moment    :     -0.55749       0.13301       0.34620
                        -----------------------------------------
Magnitude (a.u.)       :      0.66959
Magnitude (Debye)      :      1.70196

Rotational constants in cm-1:     4.414913     0.822887     0.782392
Rotational constants in MHz : 132355.766094 24669.526513 23455.513417

                             ****ORCA TERMINATED NORMALLY****
TOTAL RUN TIME: 0 days 0 hours 0 minutes 41 seconds 430 msec
