                         Program Version 4.1.2  - RELEASE  -
|  1> #Run DFT-D3 single point of the dimer
|  2> ! wB97X-D3 def2-TZVP TIGHTSCF CHELPG PMODEL PAL8
|  3>
|  4> %base "16-51_DFT_AB"
|  5>
|  6> %scf
|  7> MaxIter 1000
|  8> end
|  9>
| 10> * xyz 0 1
| 11>   C                      3.918612             -5.045741            2.896027
| 12>   O                      4.275113             -3.748419            2.773380
| 13>   H                      5.177996             -3.619790            2.820687
| 14>   H                      3.911424             -5.560728            1.980114
| 15>   H                      4.669848             -5.508734            3.468600
| 16>   H                      2.869578             -5.280809            3.312576
| 17>   C                      8.386589             -2.071084            0.136548
| 18>   O                      8.601120             -2.945565            1.138944
| 19>   H                      8.944620             -3.784595            0.801443
| 20>   H                      9.232089             -1.678624            -0.281873
| 21>   H                      7.906528             -2.696329            -0.613378
| 22>   H                      7.677471             -1.266587            0.351767
| 23> *
| 24>
| 25> #Run DFT-D3 single point of the molecule with dimer basis set
| 26> $new_job
| 27> %base "16-51_DFT_A"
| 28> ! wB97X-D3 def2-TZVP TIGHTSCF CHELPG PMODEL
| 29>
| 30> %scf
| 31> MaxIter 1000
| 32> end
| 33>
| 34> * xyz 0 1
| 35>   C                      3.918612             -5.045741            2.896027
| 36>   O                      4.275113             -3.748419            2.773380
| 37>   H                      5.177996             -3.619790            2.820687
| 38>   H                      3.911424             -5.560728            1.980114
| 39>   H                      4.669848             -5.508734            3.468600
| 40>   H                      2.869578             -5.280809            3.312576
| 41>   C                    : 8.386589             -2.071084            0.136548
| 42>   O                    : 8.601120             -2.945565            1.138944
| 43>   H                    : 8.944620             -3.784595            0.801443
| 44>   H                    : 9.232089             -1.678624            -0.281873
| 45>   H                    : 7.906528             -2.696329            -0.613378
| 46>   H                    : 7.677471             -1.266587            0.351767
| 47> *
| 48>
| 49> #Run DFT-D3 single point of the particle with dimer basis set
| 50> $new_job
| 51> %base "16-51_DFT_B"
| 52> ! wB97X-D3 def2-TZVP TIGHTSCF CHELPG PMODEL
| 53>
| 54> %scf
| 55> MaxIter 1000
| 56> end
| 57>
| 58> * xyz 0 1
| 59>   C                    : 3.918612             -5.045741            2.896027
| 60>   O                    : 4.275113             -3.748419            2.773380
| 61>   H                    : 5.177996             -3.619790            2.820687
| 62>   H                    : 3.911424             -5.560728            1.980114
| 63>   H                    : 4.669848             -5.508734            3.468600
| 64>   H                    : 2.869578             -5.280809            3.312576
| 65>   C                      8.386589             -2.071084            0.136548
| 66>   O                      8.601120             -2.945565            1.138944
| 67>   H                      8.944620             -3.784595            0.801443
| 68>   H                      9.232089             -1.678624            -0.281873
| 69>   H                      7.906528             -2.696329            -0.613378
| 70>   H                      7.677471             -1.266587            0.351767
| 71> *
| 72>
| 73>                          ****END OF INPUT****
 Total Charge           Charge          ....    0
 Multiplicity           Mult            ....    1
 Number of Electrons    NEL             ....   36
Dispersion correction           -0.000681201
FINAL SINGLE POINT ENERGY      -231.447068375426
Dispersion correction           -0.000218031
FINAL SINGLE POINT ENERGY      -115.721966350106

CARTESIAN COORDINATES (ANGSTROEM)
---------------------------------
  C      3.918612   -5.045741    2.896027
  O      4.275113   -3.748419    2.773380
  H      5.177996   -3.619790    2.820687
  H      3.911424   -5.560728    1.980114
  H      4.669848   -5.508734    3.468600
  H      2.869578   -5.280809    3.312576
  C      8.386589   -2.071084    0.136548
  O      8.601120   -2.945565    1.138944
  H      8.944620   -3.784595    0.801443
  H      9.232089   -1.678624   -0.281873
  H      7.906528   -2.696329   -0.613378
  H      7.677471   -1.266587    0.351767

 Multiplicity           Mult            ....    1
 Number of Electrons    NEL             ....   18
 Basis Dimension        Dim             ....  172

ORBITAL ENERGIES
----------------

  NO   OCC          E(Eh)            E(eV)
   0   2.0000     -19.225840      -523.1617
   1   2.0000     -10.298106      -280.2257
   2   2.0000      -1.154610       -31.4185
   3   2.0000      -0.798216       -21.7206
   4   2.0000      -0.624556       -16.9950
   5   2.0000      -0.558585       -15.1999
   6   2.0000      -0.542095       -14.7512
   7   2.0000      -0.418525       -11.3886
   8   2.0000      -0.367559       -10.0018
   9   0.0000       0.091423         2.4878
  10   0.0000       0.112937         3.0732
  11   0.0000       0.158952         4.3253
  12   0.0000       0.171045         4.6544
  13   0.0000       0.201916         5.4944

MULLIKEN ATOMIC CHARGES
-----------------------
   0 C :    0.000127
   1 O :    0.000213
   2 H :   -0.001825
   3 H :   -0.000007
   4 H :    0.000012
   5 H :   -0.000003
   6 C :   -0.140031
   7 O :   -0.474963
   8 H :    0.323251
   9 H :    0.095394
  10 H :    0.085859
  11 H :    0.111972
Sum of atomic charges:    0.0000000

LOEWDIN ATOMIC CHARGES
----------------------
   0 C :   -0.000025
   1 O :   -0.000026
   2 H :   -0.000994
   3 H :   -0.000001
   4 H :   -0.000002
   5 H :   -0.000001
   6 C :   -0.425578
   7 O :   -0.034473
   8 H :    0.180503
   9 H :    0.075353
  10 H :    0.096418
  11 H :    0.108825

  Mayer bond orders larger than 0.1
B(  6-C ,  7-O ) :   0.9973 B(  6-C ,  9-H ) :   0.9717 B(  6-C , 10-H ) :   1.0091
B(  6-C , 11-H ) :   0.9701 B(  7-O ,  8-H ) :   0.8896

Dispersion correction           -0.000197617
FINAL SINGLE POINT ENERGY      -115.723603229901

DIPOLE MOMENT
-------------
                                X             Y             Z
Electronic contribution:      0.37100      -0.91310       1.50327
Nuclear contribution   :     -0.22470       0.69622      -2.10710
                        -----------------------------------------
Total Dipole Moment    :      0.14630      -0.21687      -0.60383
                        -----------------------------------------
Magnitude (a.u.)       :      0.65806
Magnitude (Debye)      :      1.67266

Rotational constants in cm-1:     4.547920     0.903091     0.867040
Rotational constants in MHz : 136343.201427 27073.977656 25993.216602

                             ****ORCA TERMINATED NORMALLY****
TOTAL RUN TIME: 0 days 0 hours 1 minutes 5 seconds 1 msec
