                         Program Version 4.1.2  - RELEASE  -
|  1> #Run DFT-D3 single point of the dimer
|  2> ! wB97X-D3 def2-TZVP TIGHTSCF CHELPG PMODEL PAL8
|  3>
|  4> %base "11-195_DFT_AB"
|  5>
|  6> %scf
|  7> MaxIter 1000
|  8> end
|  9>
| 10> * xyz 0 1
| 11>   C                      -0.647582            -4.384071            -10.241415
| 12>   O                      -0.142247            -4.542060            -8.940821
| 13>   H                      0.686996             -5.009222            -8.993098
| 14>   H                      -1.151359            -5.299721            -10.597012
| 15>   H                      -1.486091            -3.639362            -10.310894
| 16>   H                      0.190544             -4.175710            -10.874891
| 17>   C                      3.638969             -4.243337            -10.933634
| 18>   O                      2.752678             -4.105651            -9.852440
| 19>   H                      2.637474             -3.196895            -9.717942
| 20>   H                      3.322658             -3.639756            -11.848749
| 21>   H                      4.652541             -3.898487            -10.690251
| 22>   H                      3.701753             -5.267917            -11.306703
| 23> *
| 24>
| 25> #Run DFT-D3 single point of the molecule with dimer basis set
| 26> $new_job
| 27> %base "11-195_DFT_A"
| 28> ! wB97X-D3 def2-TZVP TIGHTSCF CHELPG PMODEL
| 29>
| 30> %scf
| 31> MaxIter 1000
| 32> end
| 33>
| 34> * xyz 0 1
| 35>   C                      -0.647582            -4.384071            -10.241415
| 36>   O                      -0.142247            -4.542060            -8.940821
| 37>   H                      0.686996             -5.009222            -8.993098
| 38>   H                      -1.151359            -5.299721            -10.597012
| 39>   H                      -1.486091            -3.639362            -10.310894
| 40>   H                      0.190544             -4.175710            -10.874891
| 41>   C                    : 3.638969             -4.243337            -10.933634
| 42>   O                    : 2.752678             -4.105651            -9.852440
| 43>   H                    : 2.637474             -3.196895            -9.717942
| 44>   H                    : 3.322658             -3.639756            -11.848749
| 45>   H                    : 4.652541             -3.898487            -10.690251
| 46>   H                    : 3.701753             -5.267917            -11.306703
| 47> *
| 48>
| 49> #Run DFT-D3 single point of the particle with dimer basis set
| 50> $new_job
| 51> %base "11-195_DFT_B"
| 52> ! wB97X-D3 def2-TZVP TIGHTSCF CHELPG PMODEL
| 53>
| 54> %scf
| 55> MaxIter 1000
| 56> end
| 57>
| 58> * xyz 0 1
| 59>   C                    : -0.647582            -4.384071            -10.241415
| 60>   O                    : -0.142247            -4.542060            -8.940821
| 61>   H                    : 0.686996             -5.009222            -8.993098
| 62>   H                    : -1.151359            -5.299721            -10.597012
| 63>   H                    : -1.486091            -3.639362            -10.310894
| 64>   H                    : 0.190544             -4.175710            -10.874891
| 65>   C                      3.638969             -4.243337            -10.933634
| 66>   O                      2.752678             -4.105651            -9.852440
| 67>   H                      2.637474             -3.196895            -9.717942
| 68>   H                      3.322658             -3.639756            -11.848749
| 69>   H                      4.652541             -3.898487            -10.690251
| 70>   H                      3.701753             -5.267917            -11.306703
| 71> *
| 72>
| 73>                          ****END OF INPUT****
 Total Charge           Charge          ....    0
 Multiplicity           Mult            ....    1
 Number of Electrons    NEL             ....   36
Dispersion correction           -0.001865985
FINAL SINGLE POINT ENERGY      -231.473372141700
Dispersion correction           -0.000232067
FINAL SINGLE POINT ENERGY      -115.732689475801

CARTESIAN COORDINATES (ANGSTROEM)
---------------------------------
  C     -0.647582   -4.384071  -10.241415
  O     -0.142247   -4.542060   -8.940821
  H      0.686996   -5.009222   -8.993098
  H     -1.151359   -5.299721  -10.597012
  H     -1.486091   -3.639362  -10.310894
  H      0.190544   -4.175710  -10.874891
  C      3.638969   -4.243337  -10.933634
  O      2.752678   -4.105651   -9.852440
  H      2.637474   -3.196895   -9.717942
  H      3.322658   -3.639756  -11.848749
  H      4.652541   -3.898487  -10.690251
  H      3.701753   -5.267917  -11.306703

 Multiplicity           Mult            ....    1
 Number of Electrons    NEL             ....   18
 Basis Dimension        Dim             ....  172

ORBITAL ENERGIES
----------------

  NO   OCC          E(Eh)            E(eV)
   0   2.0000     -19.231989      -523.3290
   1   2.0000     -10.318683      -280.7856
   2   2.0000      -1.149489       -31.2792
   3   2.0000      -0.796217       -21.6662
   4   2.0000      -0.617890       -16.8136
   5   2.0000      -0.540831       -14.7168
   6   2.0000      -0.530015       -14.4224
   7   2.0000      -0.436090       -11.8666
   8   2.0000      -0.375500       -10.2179
   9   0.0000       0.096018         2.6128
  10   0.0000       0.128904         3.5077
  11   0.0000       0.151189         4.1141
  12   0.0000       0.184979         5.0335
  13   0.0000       0.197880         5.3846

MULLIKEN ATOMIC CHARGES
-----------------------
   0 C :    0.002438
   1 O :    0.000877
   2 H :   -0.006097
   3 H :   -0.000689
   4 H :   -0.000042
   5 H :   -0.008725
   6 C :   -0.172037
   7 O :   -0.449410
   8 H :    0.310285
   9 H :    0.096614
  10 H :    0.103304
  11 H :    0.123483
Sum of atomic charges:    0.0000000

LOEWDIN ATOMIC CHARGES
----------------------
   0 C :   -0.006793
   1 O :   -0.003263
   2 H :   -0.014361
   3 H :   -0.000098
   4 H :   -0.000058
   5 H :   -0.006527
   6 C :   -0.397300
   7 O :   -0.025971
   8 H :    0.150777
   9 H :    0.101101
  10 H :    0.094421
  11 H :    0.108073

  Mayer bond orders larger than 0.1
B(  6-C ,  7-O ) :   0.9930 B(  6-C ,  9-H ) :   0.9767 B(  6-C , 10-H ) :   0.9718
B(  6-C , 11-H ) :   0.9745 B(  7-O ,  8-H ) :   0.9049

Dispersion correction           -0.000243861
FINAL SINGLE POINT ENERGY      -115.734485173213

DIPOLE MOMENT
-------------
                                X             Y             Z
Electronic contribution:     -1.17277      -0.01841       1.54670
Nuclear contribution   :      1.45624       0.53833      -1.87784
                        -----------------------------------------
Total Dipole Moment    :      0.28347       0.51992      -0.33114
                        -----------------------------------------
Magnitude (a.u.)       :      0.67848
Magnitude (Debye)      :      1.72455

Rotational constants in cm-1:     4.327300     0.830998     0.804026
Rotational constants in MHz : 129729.202159 24912.699170 24104.106643

                             ****ORCA TERMINATED NORMALLY****
TOTAL RUN TIME: 0 days 0 hours 1 minutes 14 seconds 244 msec
