                         Program Version 4.1.2  - RELEASE  -
|  1> #Run DFT-D3 single point of the dimer
|  2> ! wB97X-D3 def2-TZVP TIGHTSCF  CHELPG PAL8
|  3>
|  4> %base "87_charges"
|  5>
|  6> %scf
|  7> MaxIter 1000
|  8> end
|  9> %output
| 10>   Print[ P_Mayer ] 1
| 11>   Print[ P_NatPop ] 1
| 12>   Print[ P_Hirshfeld ] 1
| 13>   Print[ P_Mulliken ] 1
| 14>   Print [ P_Loewdin ] 1
| 15> end
| 16>
| 17> * xyz 0 1
| 18>   C                      -10.180925           -2.569468            -8.820146
| 19>   O                      -9.374320            -2.871517            -9.935077
| 20>   H                      -9.673605            -2.337938            -10.677268
| 21>   H                      -11.144479           -3.090517            -8.951312
| 22>   H                      -9.730954            -2.985185            -7.897724
| 23>   H                      -10.347980           -1.480380            -8.781422
| 24> *
| 25>
| 26>                          ****END OF INPUT****

CARTESIAN COORDINATES (ANGSTROEM)
---------------------------------
  C    -10.180925   -2.569468   -8.820146
  O     -9.374320   -2.871517   -9.935077
  H     -9.673605   -2.337938  -10.677268
  H    -11.144479   -3.090517   -8.951312
  H     -9.730954   -2.985185   -7.897724
  H    -10.347980   -1.480380   -8.781422

 Total Charge           Charge          ....    0
 Multiplicity           Mult            ....    1
 Number of Electrons    NEL             ....   18
 Basis Dimension        Dim             ....   86

ORBITAL ENERGIES
----------------

  NO   OCC          E(Eh)            E(eV)
   0   2.0000     -19.226690      -523.1848
   1   2.0000     -10.315846      -280.7084
   2   2.0000      -1.136210       -30.9179
   3   2.0000      -0.790943       -21.5227
   4   2.0000      -0.608861       -16.5679
   5   2.0000      -0.542366       -14.7585
   6   2.0000      -0.529047       -14.3961
   7   2.0000      -0.432210       -11.7610
   8   2.0000      -0.368899       -10.0382
   9   0.0000       0.113562         3.0902
  10   0.0000       0.157499         4.2858
  11   0.0000       0.199440         5.4270
  12   0.0000       0.203993         5.5509
  13   0.0000       0.224675         6.1137

MULLIKEN ATOMIC CHARGES
-----------------------
   0 C :   -0.152585
   1 O :   -0.477921
   2 H :    0.314153
   3 H :    0.097900
   4 H :    0.117297
   5 H :    0.101156
Sum of atomic charges:    0.0000000

LOEWDIN ATOMIC CHARGES
----------------------
   0 C :   -0.389651
   1 O :   -0.081249
   2 H :    0.169161
   3 H :    0.095140
   4 H :    0.110371
   5 H :    0.096228

  Mayer bond orders larger than 0.1
B(  0-C ,  1-O ) :   0.9949 B(  0-C ,  3-H ) :   0.9781 B(  0-C ,  4-H ) :   0.9709
B(  0-C ,  5-H ) :   0.9815 B(  1-O ,  2-H ) :   0.8990

Dispersion correction           -0.000226542
FINAL SINGLE POINT ENERGY      -115.735085103850

DIPOLE MOMENT
-------------
                                X             Y             Z
Electronic contribution:      1.14051      -0.42191      -1.26850
Nuclear contribution   :     -1.64749       0.87836       1.23897
                        -----------------------------------------
Total Dipole Moment    :     -0.50698       0.45645      -0.02952
                        -----------------------------------------
Magnitude (a.u.)       :      0.68282
Magnitude (Debye)      :      1.73560

Rotational constants in cm-1:     4.158916     0.843691     0.808391
Rotational constants in MHz : 124681.161905 25293.206557 24234.962781

                             ****ORCA TERMINATED NORMALLY****
TOTAL RUN TIME: 0 days 0 hours 0 minutes 41 seconds 215 msec
