                         Program Version 4.1.2  - RELEASE  -
|  1> #Run DFT-D3 single point of the dimer
|  2> ! wB97X-D3 def2-TZVP TIGHTSCF CHELPG PMODEL PAL8
|  3>
|  4> %base "22-84_DFT_AB"
|  5>
|  6> %scf
|  7> MaxIter 1000
|  8> end
|  9>
| 10> * xyz 0 1
| 11>   C                      2.808889             0.844054             -8.414163
| 12>   O                      2.751306             -0.322919            -7.643315
| 13>   H                      2.321928             -0.062151            -6.767259
| 14>   H                      3.391022             0.885911             -9.374107
| 15>   H                      1.750066             0.987597             -8.760820
| 16>   H                      3.044555             1.683032             -7.747926
| 17>   C                      6.493187             1.871851             -10.034547
| 18>   O                      6.377108             2.785616             -11.078557
| 19>   H                      5.880619             2.394599             -11.838950
| 20>   H                      5.716347             2.026950             -9.262070
| 21>   H                      6.441241             0.745366             -10.393195
| 22>   H                      7.463750             1.975361             -9.514436
| 23> *
| 24>
| 25> #Run DFT-D3 single point of the molecule with dimer basis set
| 26> $new_job
| 27> %base "22-84_DFT_A"
| 28> ! wB97X-D3 def2-TZVP TIGHTSCF CHELPG PMODEL
| 29>
| 30> %scf
| 31> MaxIter 1000
| 32> end
| 33>
| 34> * xyz 0 1
| 35>   C                      2.808889             0.844054             -8.414163
| 36>   O                      2.751306             -0.322919            -7.643315
| 37>   H                      2.321928             -0.062151            -6.767259
| 38>   H                      3.391022             0.885911             -9.374107
| 39>   H                      1.750066             0.987597             -8.760820
| 40>   H                      3.044555             1.683032             -7.747926
| 41>   C                    : 6.493187             1.871851             -10.034547
| 42>   O                    : 6.377108             2.785616             -11.078557
| 43>   H                    : 5.880619             2.394599             -11.838950
| 44>   H                    : 5.716347             2.026950             -9.262070
| 45>   H                    : 6.441241             0.745366             -10.393195
| 46>   H                    : 7.463750             1.975361             -9.514436
| 47> *
| 48>
| 49> #Run DFT-D3 single point of the particle with dimer basis set
| 50> $new_job
| 51> %base "22-84_DFT_B"
| 52> ! wB97X-D3 def2-TZVP TIGHTSCF CHELPG PMODEL
| 53>
| 54> %scf
| 55> MaxIter 1000
| 56> end
| 57>
| 58> * xyz 0 1
| 59>   C                    : 2.808889             0.844054             -8.414163
| 60>   O                    : 2.751306             -0.322919            -7.643315
| 61>   H                    : 2.321928             -0.062151            -6.767259
| 62>   H                    : 3.391022             0.885911             -9.374107
| 63>   H                    : 1.750066             0.987597             -8.760820
| 64>   H                    : 3.044555             1.683032             -7.747926
| 65>   C                      6.493187             1.871851             -10.034547
| 66>   O                      6.377108             2.785616             -11.078557
| 67>   H                      5.880619             2.394599             -11.838950
| 68>   H                      5.716347             2.026950             -9.262070
| 69>   H                      6.441241             0.745366             -10.393195
| 70>   H                      7.463750             1.975361             -9.514436
| 71> *
| 72>
| 73>                          ****END OF INPUT****
 Total Charge           Charge          ....    0
 Multiplicity           Mult            ....    1
 Number of Electrons    NEL             ....   36
Dispersion correction           -0.001289821
FINAL SINGLE POINT ENERGY      -231.455289074306
Dispersion correction           -0.000226306
FINAL SINGLE POINT ENERGY      -115.723728753777

CARTESIAN COORDINATES (ANGSTROEM)
---------------------------------
  C      2.808889    0.844054   -8.414163
  O      2.751306   -0.322919   -7.643315
  H      2.321928   -0.062151   -6.767259
  H      3.391022    0.885911   -9.374107
  H      1.750066    0.987597   -8.760820
  H      3.044555    1.683032   -7.747926
  C      6.493187    1.871851  -10.034547
  O      6.377108    2.785616  -11.078557
  H      5.880619    2.394599  -11.838950
  H      5.716347    2.026950   -9.262070
  H      6.441241    0.745366  -10.393195
  H      7.463750    1.975361   -9.514436

 Multiplicity           Mult            ....    1
 Number of Electrons    NEL             ....   18
 Basis Dimension        Dim             ....  172

ORBITAL ENERGIES
----------------

  NO   OCC          E(Eh)            E(eV)
   0   2.0000     -19.234395      -523.3945
   1   2.0000     -10.323046      -280.9044
   2   2.0000      -1.137577       -30.9551
   3   2.0000      -0.786555       -21.4032
   4   2.0000      -0.608892       -16.5688
   5   2.0000      -0.538293       -14.6477
   6   2.0000      -0.528890       -14.3918
   7   2.0000      -0.423378       -11.5207
   8   2.0000      -0.371866       -10.1190
   9   0.0000       0.083722         2.2782
  10   0.0000       0.109311         2.9745
  11   0.0000       0.149650         4.0722
  12   0.0000       0.169183         4.6037
  13   0.0000       0.181301         4.9334

MULLIKEN ATOMIC CHARGES
-----------------------
   0 C :   -0.001873
   1 O :    0.000171
   2 H :    0.000013
   3 H :    0.001792
   4 H :   -0.000055
   5 H :   -0.000247
   6 C :   -0.175126
   7 O :   -0.472131
   8 H :    0.325395
   9 H :    0.107869
  10 H :    0.095100
  11 H :    0.119091
Sum of atomic charges:   -0.0000000

LOEWDIN ATOMIC CHARGES
----------------------
   0 C :   -0.003648
   1 O :   -0.000008
   2 H :   -0.000002
   3 H :   -0.002210
   4 H :   -0.000034
   5 H :   -0.000610
   6 C :   -0.417194
   7 O :   -0.074793
   8 H :    0.189179
   9 H :    0.096807
  10 H :    0.107211
  11 H :    0.105300

  Mayer bond orders larger than 0.1
B(  6-C ,  7-O ) :   1.0088 B(  6-C ,  9-H ) :   0.9719 B(  6-C , 10-H ) :   0.9797
B(  6-C , 11-H ) :   0.9700 B(  7-O ,  8-H ) :   0.8881

Dispersion correction           -0.000269699
FINAL SINGLE POINT ENERGY      -115.730845262766

DIPOLE MOMENT
-------------
                                X             Y             Z
Electronic contribution:     -0.09065       1.40872      -1.33610
Nuclear contribution   :     -0.16924      -1.98831       1.23503
                        -----------------------------------------
Total Dipole Moment    :     -0.25989      -0.57959      -0.10107
                        -----------------------------------------
Magnitude (a.u.)       :      0.64318
Magnitude (Debye)      :      1.63484

Rotational constants in cm-1:     4.106355     0.835842     0.801398
Rotational constants in MHz : 123105.417061 25057.927617 24025.316447

                             ****ORCA TERMINATED NORMALLY****
TOTAL RUN TIME: 0 days 0 hours 0 minutes 52 seconds 253 msec
