                         Program Version 4.1.2  - RELEASE  -
|  1> #Run DFT-D3 single point of the dimer
|  2> ! wB97X-D3 def2-TZVP TIGHTSCF CHELPG PMODEL PAL8
|  3>
|  4> %base "22-91_DFT_AB"
|  5>
|  6> %scf
|  7> MaxIter 1000
|  8> end
|  9>
| 10> * xyz 0 1
| 11>   C                      2.808889             0.844054             -8.414163
| 12>   O                      2.751306             -0.322919            -7.643315
| 13>   H                      2.321928             -0.062151            -6.767259
| 14>   H                      3.391022             0.885911             -9.374107
| 15>   H                      1.750066             0.987597             -8.760820
| 16>   H                      3.044555             1.683032             -7.747926
| 17>   C                      2.918165             5.299627             -5.197540
| 18>   O                      3.253149             4.996970             -6.525041
| 19>   H                      2.408468             4.743285             -6.901671
| 20>   H                      2.596880             6.344915             -4.937334
| 21>   H                      2.037394             4.738800             -4.948837
| 22>   H                      3.780129             5.006225             -4.529170
| 23> *
| 24>
| 25> #Run DFT-D3 single point of the molecule with dimer basis set
| 26> $new_job
| 27> %base "22-91_DFT_A"
| 28> ! wB97X-D3 def2-TZVP TIGHTSCF CHELPG PMODEL
| 29>
| 30> %scf
| 31> MaxIter 1000
| 32> end
| 33>
| 34> * xyz 0 1
| 35>   C                      2.808889             0.844054             -8.414163
| 36>   O                      2.751306             -0.322919            -7.643315
| 37>   H                      2.321928             -0.062151            -6.767259
| 38>   H                      3.391022             0.885911             -9.374107
| 39>   H                      1.750066             0.987597             -8.760820
| 40>   H                      3.044555             1.683032             -7.747926
| 41>   C                    : 2.918165             5.299627             -5.197540
| 42>   O                    : 3.253149             4.996970             -6.525041
| 43>   H                    : 2.408468             4.743285             -6.901671
| 44>   H                    : 2.596880             6.344915             -4.937334
| 45>   H                    : 2.037394             4.738800             -4.948837
| 46>   H                    : 3.780129             5.006225             -4.529170
| 47> *
| 48>
| 49> #Run DFT-D3 single point of the particle with dimer basis set
| 50> $new_job
| 51> %base "22-91_DFT_B"
| 52> ! wB97X-D3 def2-TZVP TIGHTSCF CHELPG PMODEL
| 53>
| 54> %scf
| 55> MaxIter 1000
| 56> end
| 57>
| 58> * xyz 0 1
| 59>   C                    : 2.808889             0.844054             -8.414163
| 60>   O                    : 2.751306             -0.322919            -7.643315
| 61>   H                    : 2.321928             -0.062151            -6.767259
| 62>   H                    : 3.391022             0.885911             -9.374107
| 63>   H                    : 1.750066             0.987597             -8.760820
| 64>   H                    : 3.044555             1.683032             -7.747926
| 65>   C                      2.918165             5.299627             -5.197540
| 66>   O                      3.253149             4.996970             -6.525041
| 67>   H                      2.408468             4.743285             -6.901671
| 68>   H                      2.596880             6.344915             -4.937334
| 69>   H                      2.037394             4.738800             -4.948837
| 70>   H                      3.780129             5.006225             -4.529170
| 71> *
| 72>
| 73>                          ****END OF INPUT****
 Total Charge           Charge          ....    0
 Multiplicity           Mult            ....    1
 Number of Electrons    NEL             ....   36
Dispersion correction           -0.000868069
FINAL SINGLE POINT ENERGY      -231.454516838030
Dispersion correction           -0.000226306
FINAL SINGLE POINT ENERGY      -115.723706002262

CARTESIAN COORDINATES (ANGSTROEM)
---------------------------------
  C      2.808889    0.844054   -8.414163
  O      2.751306   -0.322919   -7.643315
  H      2.321928   -0.062151   -6.767259
  H      3.391022    0.885911   -9.374107
  H      1.750066    0.987597   -8.760820
  H      3.044555    1.683032   -7.747926
  C      2.918165    5.299627   -5.197540
  O      3.253149    4.996970   -6.525041
  H      2.408468    4.743285   -6.901671
  H      2.596880    6.344915   -4.937334
  H      2.037394    4.738800   -4.948837
  H      3.780129    5.006225   -4.529170

 Multiplicity           Mult            ....    1
 Number of Electrons    NEL             ....   18
 Basis Dimension        Dim             ....  172

ORBITAL ENERGIES
----------------

  NO   OCC          E(Eh)            E(eV)
   0   2.0000     -19.235149      -523.4150
   1   2.0000     -10.317504      -280.7536
   2   2.0000      -1.146840       -31.2071
   3   2.0000      -0.789902       -21.4943
   4   2.0000      -0.620845       -16.8941
   5   2.0000      -0.535529       -14.5725
   6   2.0000      -0.527397       -14.3512
   7   2.0000      -0.440428       -11.9847
   8   2.0000      -0.373431       -10.1616
   9   0.0000       0.083679         2.2770
  10   0.0000       0.116034         3.1574
  11   0.0000       0.151049         4.1103
  12   0.0000       0.167040         4.5454
  13   0.0000       0.192665         5.2427

MULLIKEN ATOMIC CHARGES
-----------------------
   0 C :    0.002771
   1 O :   -0.000035
   2 H :   -0.000015
   3 H :   -0.000063
   4 H :   -0.000103
   5 H :   -0.006498
   6 C :   -0.173735
   7 O :   -0.453228
   8 H :    0.317575
   9 H :    0.093818
  10 H :    0.101228
  11 H :    0.118285
Sum of atomic charges:    0.0000000

LOEWDIN ATOMIC CHARGES
----------------------
   0 C :   -0.000307
   1 O :   -0.000011
   2 H :   -0.000002
   3 H :   -0.000003
   4 H :   -0.000008
   5 H :   -0.002198
   6 C :   -0.406687
   7 O :   -0.064093
   8 H :    0.173272
   9 H :    0.096777
  10 H :    0.090295
  11 H :    0.112964

  Mayer bond orders larger than 0.1
B(  6-C ,  7-O ) :   1.0134 B(  6-C ,  9-H ) :   0.9604 B(  6-C , 10-H ) :   0.9924
B(  6-C , 11-H ) :   0.9764 B(  7-O ,  8-H ) :   0.9003

Dispersion correction           -0.000240727
FINAL SINGLE POINT ENERGY      -115.730444732828

DIPOLE MOMENT
-------------
                                X             Y             Z
Electronic contribution:      0.64175      -0.33382      -1.78459
Nuclear contribution   :     -1.32174       0.26546       2.04577
                        -----------------------------------------
Total Dipole Moment    :     -0.67999      -0.06836       0.26118
                        -----------------------------------------
Magnitude (a.u.)       :      0.73162
Magnitude (Debye)      :      1.85964

Rotational constants in cm-1:     4.228700     0.845924     0.806632
Rotational constants in MHz : 126773.222769 25360.153991 24182.231253

                             ****ORCA TERMINATED NORMALLY****
TOTAL RUN TIME: 0 days 0 hours 0 minutes 54 seconds 573 msec
