                         Program Version 4.1.2  - RELEASE  -
|  1> #Run DFT-D3 single point of the dimer
|  2> ! wB97X-D3 def2-TZVP TIGHTSCF CHELPG PMODEL PAL8
|  3>
|  4> %base "18-90_DFT_AB"
|  5>
|  6> %scf
|  7> MaxIter 1000
|  8> end
|  9>
| 10> * xyz 0 1
| 11>   C                      1.101496             -2.053978            7.307832
| 12>   O                      1.384987             -2.297058            5.969188
| 13>   H                      1.151471             -3.185395            5.702275
| 14>   H                      1.317104             -1.048099            7.698919
| 15>   H                      0.046442             -2.231063            7.406682
| 16>   H                      1.610017             -2.809292            7.907819
| 17>   C                      5.262110             -1.486866            11.091563
| 18>   O                      4.170420             -2.310943            11.136274
| 19>   H                      4.160591             -2.782107            10.353779
| 20>   H                      6.141356             -2.132353            11.097841
| 21>   H                      5.284140             -0.796770            10.273896
| 22>   H                      5.331895             -0.844729            11.976190
| 23> *
| 24>
| 25> #Run DFT-D3 single point of the molecule with dimer basis set
| 26> $new_job
| 27> %base "18-90_DFT_A"
| 28> ! wB97X-D3 def2-TZVP TIGHTSCF CHELPG PMODEL
| 29>
| 30> %scf
| 31> MaxIter 1000
| 32> end
| 33>
| 34> * xyz 0 1
| 35>   C                      1.101496             -2.053978            7.307832
| 36>   O                      1.384987             -2.297058            5.969188
| 37>   H                      1.151471             -3.185395            5.702275
| 38>   H                      1.317104             -1.048099            7.698919
| 39>   H                      0.046442             -2.231063            7.406682
| 40>   H                      1.610017             -2.809292            7.907819
| 41>   C                    : 5.262110             -1.486866            11.091563
| 42>   O                    : 4.170420             -2.310943            11.136274
| 43>   H                    : 4.160591             -2.782107            10.353779
| 44>   H                    : 6.141356             -2.132353            11.097841
| 45>   H                    : 5.284140             -0.796770            10.273896
| 46>   H                    : 5.331895             -0.844729            11.976190
| 47> *
| 48>
| 49> #Run DFT-D3 single point of the particle with dimer basis set
| 50> $new_job
| 51> %base "18-90_DFT_B"
| 52> ! wB97X-D3 def2-TZVP TIGHTSCF CHELPG PMODEL
| 53>
| 54> %scf
| 55> MaxIter 1000
| 56> end
| 57>
| 58> * xyz 0 1
| 59>   C                    : 1.101496             -2.053978            7.307832
| 60>   O                    : 1.384987             -2.297058            5.969188
| 61>   H                    : 1.151471             -3.185395            5.702275
| 62>   H                    : 1.317104             -1.048099            7.698919
| 63>   H                    : 0.046442             -2.231063            7.406682
| 64>   H                    : 1.610017             -2.809292            7.907819
| 65>   C                      5.262110             -1.486866            11.091563
| 66>   O                      4.170420             -2.310943            11.136274
| 67>   H                      4.160591             -2.782107            10.353779
| 68>   H                      6.141356             -2.132353            11.097841
| 69>   H                      5.284140             -0.796770            10.273896
| 70>   H                      5.331895             -0.844729            11.976190
| 71> *
| 72>
| 73>                          ****END OF INPUT****
 Total Charge           Charge          ....    0
 Multiplicity           Mult            ....    1
 Number of Electrons    NEL             ....   36
Dispersion correction           -0.000690298
FINAL SINGLE POINT ENERGY      -231.462267573717
Dispersion correction           -0.000215820
FINAL SINGLE POINT ENERGY      -115.730493817419

CARTESIAN COORDINATES (ANGSTROEM)
---------------------------------
  C      1.101496   -2.053978    7.307832
  O      1.384987   -2.297058    5.969188
  H      1.151471   -3.185395    5.702275
  H      1.317104   -1.048099    7.698919
  H      0.046442   -2.231063    7.406682
  H      1.610017   -2.809292    7.907819
  C      5.262110   -1.486866   11.091563
  O      4.170420   -2.310943   11.136274
  H      4.160591   -2.782107   10.353779
  H      6.141356   -2.132353   11.097841
  H      5.284140   -0.796770   10.273896
  H      5.331895   -0.844729   11.976190

 Multiplicity           Mult            ....    1
 Number of Electrons    NEL             ....   18
 Basis Dimension        Dim             ....  172

ORBITAL ENERGIES
----------------

  NO   OCC          E(Eh)            E(eV)
   0   2.0000     -19.225384      -523.1493
   1   2.0000     -10.306320      -280.4492
   2   2.0000      -1.161390       -31.6030
   3   2.0000      -0.800156       -21.7733
   4   2.0000      -0.623690       -16.9715
   5   2.0000      -0.555970       -15.1287
   6   2.0000      -0.534326       -14.5397
   7   2.0000      -0.429467       -11.6864
   8   2.0000      -0.373645       -10.1674
   9   0.0000       0.082281         2.2390
  10   0.0000       0.120421         3.2768
  11   0.0000       0.155853         4.2410
  12   0.0000       0.167962         4.5705
  13   0.0000       0.197311         5.3691

MULLIKEN ATOMIC CHARGES
-----------------------
   0 C :    0.000367
   1 O :   -0.000014
   2 H :   -0.000005
   3 H :   -0.000084
   4 H :   -0.000068
   5 H :   -0.000902
   6 C :   -0.151207
   7 O :   -0.455091
   8 H :    0.307306
   9 H :    0.092904
  10 H :    0.095636
  11 H :    0.111159
Sum of atomic charges:    0.0000000

LOEWDIN ATOMIC CHARGES
----------------------
   0 C :   -0.000213
   1 O :   -0.000005
   2 H :   -0.000001
   3 H :   -0.000037
   4 H :   -0.000003
   5 H :   -0.000307
   6 C :   -0.413765
   7 O :   -0.019542
   8 H :    0.142771
   9 H :    0.094469
  10 H :    0.087394
  11 H :    0.109241

  Mayer bond orders larger than 0.1
B(  6-C ,  7-O ) :   1.0021 B(  6-C ,  9-H ) :   0.9918 B(  6-C , 10-H ) :   0.9736
B(  6-C , 11-H ) :   0.9729 B(  7-O ,  8-H ) :   0.9094

Dispersion correction           -0.000207810
FINAL SINGLE POINT ENERGY      -115.731301131585

DIPOLE MOMENT
-------------
                                X             Y             Z
Electronic contribution:     -1.53379      -1.02373       0.11124
Nuclear contribution   :      1.93057       1.03928      -0.62815
                        -----------------------------------------
Total Dipole Moment    :      0.39678       0.01555      -0.51690
                        -----------------------------------------
Magnitude (a.u.)       :      0.65182
Magnitude (Debye)      :      1.65679

Rotational constants in cm-1:     4.469932     0.877168     0.852312
Rotational constants in MHz : 134005.199550 26296.826710 25551.677697

                             ****ORCA TERMINATED NORMALLY****
TOTAL RUN TIME: 0 days 0 hours 0 minutes 57 seconds 904 msec
