                         Program Version 4.1.2  - RELEASE  -
|  1> #Run DFT-D3 single point of the dimer
|  2> ! wB97X-D3 def2-TZVP TIGHTSCF CHELPG PMODEL PAL8
|  3>
|  4> %base "6-188_DFT_AB"
|  5>
|  6> %scf
|  7> MaxIter 1000
|  8> end
|  9>
| 10> * xyz 0 1
| 11>   C                      7.449165             -7.833267            -3.684489
| 12>   O                      8.673282             -7.312019            -3.276682
| 13>   H                      8.453897             -6.609753            -2.633320
| 14>   H                      7.556963             -8.725010            -4.270334
| 15>   H                      6.723539             -8.104884            -2.806945
| 16>   H                      6.928298             -7.117201            -4.257824
| 17>   C                      8.866434             -5.670255            1.599576
| 18>   O                      8.826219             -6.242115            0.320138
| 19>   H                      9.201282             -7.120479            0.479184
| 20>   H                      9.917216             -5.639698            2.097436
| 21>   H                      8.590138             -4.618633            1.682096
| 22>   H                      8.329119             -6.216930            2.375969
| 23> *
| 24>
| 25> #Run DFT-D3 single point of the molecule with dimer basis set
| 26> $new_job
| 27> %base "6-188_DFT_A"
| 28> ! wB97X-D3 def2-TZVP TIGHTSCF CHELPG PMODEL
| 29>
| 30> %scf
| 31> MaxIter 1000
| 32> end
| 33>
| 34> * xyz 0 1
| 35>   C                      7.449165             -7.833267            -3.684489
| 36>   O                      8.673282             -7.312019            -3.276682
| 37>   H                      8.453897             -6.609753            -2.633320
| 38>   H                      7.556963             -8.725010            -4.270334
| 39>   H                      6.723539             -8.104884            -2.806945
| 40>   H                      6.928298             -7.117201            -4.257824
| 41>   C                    : 8.866434             -5.670255            1.599576
| 42>   O                    : 8.826219             -6.242115            0.320138
| 43>   H                    : 9.201282             -7.120479            0.479184
| 44>   H                    : 9.917216             -5.639698            2.097436
| 45>   H                    : 8.590138             -4.618633            1.682096
| 46>   H                    : 8.329119             -6.216930            2.375969
| 47> *
| 48>
| 49> #Run DFT-D3 single point of the particle with dimer basis set
| 50> $new_job
| 51> %base "6-188_DFT_B"
| 52> ! wB97X-D3 def2-TZVP TIGHTSCF CHELPG PMODEL
| 53>
| 54> %scf
| 55> MaxIter 1000
| 56> end
| 57>
| 58> * xyz 0 1
| 59>   C                    : 7.449165             -7.833267            -3.684489
| 60>   O                    : 8.673282             -7.312019            -3.276682
| 61>   H                    : 8.453897             -6.609753            -2.633320
| 62>   H                    : 7.556963             -8.725010            -4.270334
| 63>   H                    : 6.723539             -8.104884            -2.806945
| 64>   H                    : 6.928298             -7.117201            -4.257824
| 65>   C                      8.866434             -5.670255            1.599576
| 66>   O                      8.826219             -6.242115            0.320138
| 67>   H                      9.201282             -7.120479            0.479184
| 68>   H                      9.917216             -5.639698            2.097436
| 69>   H                      8.590138             -4.618633            1.682096
| 70>   H                      8.329119             -6.216930            2.375969
| 71> *
| 72>
| 73>                          ****END OF INPUT****
 Total Charge           Charge          ....    0
 Multiplicity           Mult            ....    1
 Number of Electrons    NEL             ....   36
Dispersion correction           -0.001033482
FINAL SINGLE POINT ENERGY      -231.463521016927
Dispersion correction           -0.000231438
FINAL SINGLE POINT ENERGY      -115.731521967966

CARTESIAN COORDINATES (ANGSTROEM)
---------------------------------
  C      7.449165   -7.833267   -3.684489
  O      8.673282   -7.312019   -3.276682
  H      8.453897   -6.609753   -2.633320
  H      7.556963   -8.725010   -4.270334
  H      6.723539   -8.104884   -2.806945
  H      6.928298   -7.117201   -4.257824
  C      8.866434   -5.670255    1.599576
  O      8.826219   -6.242115    0.320138
  H      9.201282   -7.120479    0.479184
  H      9.917216   -5.639698    2.097436
  H      8.590138   -4.618633    1.682096
  H      8.329119   -6.216930    2.375969

 Multiplicity           Mult            ....    1
 Number of Electrons    NEL             ....   18
 Basis Dimension        Dim             ....  172

ORBITAL ENERGIES
----------------

  NO   OCC          E(Eh)            E(eV)
   0   2.0000     -19.241654      -523.5920
   1   2.0000     -10.319859      -280.8176
   2   2.0000      -1.147156       -31.2157
   3   2.0000      -0.792240       -21.5580
   4   2.0000      -0.617617       -16.8062
   5   2.0000      -0.539009       -14.6672
   6   2.0000      -0.525291       -14.2939
   7   2.0000      -0.441609       -12.0168
   8   2.0000      -0.372923       -10.1477
   9   0.0000       0.093464         2.5433
  10   0.0000       0.115415         3.1406
  11   0.0000       0.146072         3.9748
  12   0.0000       0.188140         5.1195
  13   0.0000       0.197758         5.3813

MULLIKEN ATOMIC CHARGES
-----------------------
   0 C :    0.000359
   1 O :    0.000161
   2 H :   -0.003490
   3 H :   -0.000015
   4 H :   -0.000439
   5 H :   -0.000010
   6 C :   -0.192427
   7 O :   -0.447823
   8 H :    0.321770
   9 H :    0.089192
  10 H :    0.127033
  11 H :    0.105691
Sum of atomic charges:    0.0000000

LOEWDIN ATOMIC CHARGES
----------------------
   0 C :   -0.000203
   1 O :   -0.000243
   2 H :   -0.003964
   3 H :   -0.000002
   4 H :   -0.000147
   5 H :   -0.000001
   6 C :   -0.418394
   7 O :   -0.060284
   8 H :    0.183451
   9 H :    0.100988
  10 H :    0.107249
  11 H :    0.091551

  Mayer bond orders larger than 0.1
B(  6-C ,  7-O ) :   1.0042 B(  6-C ,  9-H ) :   0.9733 B(  6-C , 10-H ) :   0.9733
B(  6-C , 11-H ) :   0.9701 B(  7-O ,  8-H ) :   0.8943

Dispersion correction           -0.000252858
FINAL SINGLE POINT ENERGY      -115.728627606894

DIPOLE MOMENT
-------------
                                X             Y             Z
Electronic contribution:     -0.31202      -0.64168      -2.00619
Nuclear contribution   :      0.54391       0.31755       2.58166
                        -----------------------------------------
Total Dipole Moment    :      0.23190      -0.32413       0.57547
                        -----------------------------------------
Magnitude (a.u.)       :      0.70000
Magnitude (Debye)      :      1.77926

Rotational constants in cm-1:     4.350235     0.827249     0.792050
Rotational constants in MHz : 130416.763246 24800.315790 23745.059514

                             ****ORCA TERMINATED NORMALLY****
TOTAL RUN TIME: 0 days 0 hours 1 minutes 5 seconds 415 msec
