                         Program Version 4.1.2  - RELEASE  -
|  1> #Run DFT-D3 single point of the dimer
|  2> ! wB97X-D3 def2-TZVP TIGHTSCF CHELPG PMODEL PAL8
|  3>
|  4> %base "1-48_DFT_AB"
|  5>
|  6> %scf
|  7> MaxIter 1000
|  8> end
|  9>
| 10> * xyz 0 1
| 11>   C                      -5.018804            -11.394211           4.335101
| 12>   O                      -4.125954            -10.858784           5.383765
| 13>   H                      -3.702437            -10.083851           5.035189
| 14>   H                      -5.527582            -10.505104           3.828122
| 15>   H                      -4.441818            -11.900742           3.519998
| 16>   H                      -5.719270            -12.198359           4.600835
| 17>   C                      -4.439394            -5.866600            5.348677
| 18>   O                      -4.186637            -7.062473            6.134142
| 19>   H                      -3.738023            -6.884358            6.968323
| 20>   H                      -4.397404            -6.036696            4.230191
| 21>   H                      -5.435929            -5.555591            5.585817
| 22>   H                      -3.862727            -4.997880            5.734016
| 23> *
| 24>
| 25> #Run DFT-D3 single point of the molecule with dimer basis set
| 26> $new_job
| 27> %base "1-48_DFT_A"
| 28> ! wB97X-D3 def2-TZVP TIGHTSCF CHELPG PMODEL
| 29>
| 30> %scf
| 31> MaxIter 1000
| 32> end
| 33>
| 34> * xyz 0 1
| 35>   C                      -5.018804            -11.394211           4.335101
| 36>   O                      -4.125954            -10.858784           5.383765
| 37>   H                      -3.702437            -10.083851           5.035189
| 38>   H                      -5.527582            -10.505104           3.828122
| 39>   H                      -4.441818            -11.900742           3.519998
| 40>   H                      -5.719270            -12.198359           4.600835
| 41>   C                    : -4.439394            -5.866600            5.348677
| 42>   O                    : -4.186637            -7.062473            6.134142
| 43>   H                    : -3.738023            -6.884358            6.968323
| 44>   H                    : -4.397404            -6.036696            4.230191
| 45>   H                    : -5.435929            -5.555591            5.585817
| 46>   H                    : -3.862727            -4.997880            5.734016
| 47> *
| 48>
| 49> #Run DFT-D3 single point of the particle with dimer basis set
| 50> $new_job
| 51> %base "1-48_DFT_B"
| 52> ! wB97X-D3 def2-TZVP TIGHTSCF CHELPG PMODEL
| 53>
| 54> %scf
| 55> MaxIter 1000
| 56> end
| 57>
| 58> * xyz 0 1
| 59>   C                    : -5.018804            -11.394211           4.335101
| 60>   O                    : -4.125954            -10.858784           5.383765
| 61>   H                    : -3.702437            -10.083851           5.035189
| 62>   H                    : -5.527582            -10.505104           3.828122
| 63>   H                    : -4.441818            -11.900742           3.519998
| 64>   H                    : -5.719270            -12.198359           4.600835
| 65>   C                      -4.439394            -5.866600            5.348677
| 66>   O                      -4.186637            -7.062473            6.134142
| 67>   H                      -3.738023            -6.884358            6.968323
| 68>   H                      -4.397404            -6.036696            4.230191
| 69>   H                      -5.435929            -5.555591            5.585817
| 70>   H                      -3.862727            -4.997880            5.734016
| 71> *
| 72>
| 73>                          ****END OF INPUT****
 Total Charge           Charge          ....    0
 Multiplicity           Mult            ....    1
 Number of Electrons    NEL             ....   36
Dispersion correction           -0.001021597
FINAL SINGLE POINT ENERGY      -231.456091826477
Dispersion correction           -0.000282966
FINAL SINGLE POINT ENERGY      -115.726307981270

CARTESIAN COORDINATES (ANGSTROEM)
---------------------------------
  C     -5.018804  -11.394211    4.335101
  O     -4.125954  -10.858784    5.383765
  H     -3.702437  -10.083851    5.035189
  H     -5.527582  -10.505104    3.828122
  H     -4.441818  -11.900742    3.519998
  H     -5.719270  -12.198359    4.600835
  C     -4.439394   -5.866600    5.348677
  O     -4.186637   -7.062473    6.134142
  H     -3.738023   -6.884358    6.968323
  H     -4.397404   -6.036696    4.230191
  H     -5.435929   -5.555591    5.585817
  H     -3.862727   -4.997880    5.734016

 Multiplicity           Mult            ....    1
 Number of Electrons    NEL             ....   18
 Basis Dimension        Dim             ....  172

ORBITAL ENERGIES
----------------

  NO   OCC          E(Eh)            E(eV)
   0   2.0000     -19.227193      -523.1985
   1   2.0000     -10.321101      -280.8514
   2   2.0000      -1.120145       -30.4807
   3   2.0000      -0.797145       -21.6914
   4   2.0000      -0.605739       -16.4830
   5   2.0000      -0.531801       -14.4710
   6   2.0000      -0.524286       -14.2665
   7   2.0000      -0.431105       -11.7310
   8   2.0000      -0.369492       -10.0544
   9   0.0000       0.096072         2.6142
  10   0.0000       0.114959         3.1282
  11   0.0000       0.147603         4.0165
  12   0.0000       0.177352         4.8260
  13   0.0000       0.197416         5.3720

MULLIKEN ATOMIC CHARGES
-----------------------
   0 C :    0.000431
   1 O :    0.000034
   2 H :   -0.003310
   3 H :   -0.000320
   4 H :   -0.000023
   5 H :    0.000008
   6 C :   -0.166917
   7 O :   -0.492312
   8 H :    0.317616
   9 H :    0.126947
  10 H :    0.110321
  11 H :    0.107525
Sum of atomic charges:    0.0000000

LOEWDIN ATOMIC CHARGES
----------------------
   0 C :   -0.000114
   1 O :   -0.000379
   2 H :   -0.003118
   3 H :   -0.000063
   4 H :   -0.000001
   5 H :   -0.000000
   6 C :   -0.360798
   7 O :   -0.110909
   8 H :    0.166377
   9 H :    0.115485
  10 H :    0.092124
  11 H :    0.101397

  Mayer bond orders larger than 0.1
B(  6-C ,  7-O ) :   0.9883 B(  6-C ,  9-H ) :   0.9679 B(  6-C , 10-H ) :   0.9778
B(  6-C , 11-H ) :   0.9781 B(  7-O ,  8-H ) :   0.8947

Dispersion correction           -0.000270482
FINAL SINGLE POINT ENERGY      -115.728122777483

DIPOLE MOMENT
-------------
                                X             Y             Z
Electronic contribution:      0.36697      -1.56829       0.77592
Nuclear contribution   :     -0.20659       2.22528      -0.54497
                        -----------------------------------------
Total Dipole Moment    :      0.16039       0.65699       0.23095
                        -----------------------------------------
Magnitude (a.u.)       :      0.71464
Magnitude (Debye)      :      1.81646

Rotational constants in cm-1:     4.288638     0.793687     0.754078
Rotational constants in MHz : 128570.147414 23794.126078 22606.683182

                             ****ORCA TERMINATED NORMALLY****
TOTAL RUN TIME: 0 days 0 hours 5 minutes 37 seconds 427 msec
