                         Program Version 4.1.2  - RELEASE  -
|  1> #Run DFT-D3 single point of the dimer
|  2> ! wB97X-D3 def2-TZVP TIGHTSCF CHELPG PMODEL PAL8
|  3>
|  4> %base "17-75_DFT_AB"
|  5>
|  6> %scf
|  7> MaxIter 1000
|  8> end
|  9>
| 10> * xyz 0 1
| 11>   C                      -1.143472            3.251015             -8.383428
| 12>   O                      -1.942154            2.903486             -9.464382
| 13>   H                      -1.698939            3.509440             -10.183064
| 14>   H                      -1.426148            2.504044             -7.571571
| 15>   H                      -0.084644            3.152513             -8.594473
| 16>   H                      -1.392792            4.268874             -8.070492
| 17>   C                      -2.415535            -0.971302            -7.674667
| 18>   O                      -3.117178            -0.081729            -6.746123
| 19>   H                      -3.902999            0.348662             -7.180337
| 20>   H                      -1.751958            -0.437656            -8.368405
| 21>   H                      -1.859473            -1.788429            -7.245069
| 22>   H                      -3.184254            -1.533560            -8.318336
| 23> *
| 24>
| 25> #Run DFT-D3 single point of the molecule with dimer basis set
| 26> $new_job
| 27> %base "17-75_DFT_A"
| 28> ! wB97X-D3 def2-TZVP TIGHTSCF CHELPG PMODEL
| 29>
| 30> %scf
| 31> MaxIter 1000
| 32> end
| 33>
| 34> * xyz 0 1
| 35>   C                      -1.143472            3.251015             -8.383428
| 36>   O                      -1.942154            2.903486             -9.464382
| 37>   H                      -1.698939            3.509440             -10.183064
| 38>   H                      -1.426148            2.504044             -7.571571
| 39>   H                      -0.084644            3.152513             -8.594473
| 40>   H                      -1.392792            4.268874             -8.070492
| 41>   C                    : -2.415535            -0.971302            -7.674667
| 42>   O                    : -3.117178            -0.081729            -6.746123
| 43>   H                    : -3.902999            0.348662             -7.180337
| 44>   H                    : -1.751958            -0.437656            -8.368405
| 45>   H                    : -1.859473            -1.788429            -7.245069
| 46>   H                    : -3.184254            -1.533560            -8.318336
| 47> *
| 48>
| 49> #Run DFT-D3 single point of the particle with dimer basis set
| 50> $new_job
| 51> %base "17-75_DFT_B"
| 52> ! wB97X-D3 def2-TZVP TIGHTSCF CHELPG PMODEL
| 53>
| 54> %scf
| 55> MaxIter 1000
| 56> end
| 57>
| 58> * xyz 0 1
| 59>   C                    : -1.143472            3.251015             -8.383428
| 60>   O                    : -1.942154            2.903486             -9.464382
| 61>   H                    : -1.698939            3.509440             -10.183064
| 62>   H                    : -1.426148            2.504044             -7.571571
| 63>   H                    : -0.084644            3.152513             -8.594473
| 64>   H                    : -1.392792            4.268874             -8.070492
| 65>   C                      -2.415535            -0.971302            -7.674667
| 66>   O                      -3.117178            -0.081729            -6.746123
| 67>   H                      -3.902999            0.348662             -7.180337
| 68>   H                      -1.751958            -0.437656            -8.368405
| 69>   H                      -1.859473            -1.788429            -7.245069
| 70>   H                      -3.184254            -1.533560            -8.318336
| 71> *
| 72>
| 73>                          ****END OF INPUT****
 Total Charge           Charge          ....    0
 Multiplicity           Mult            ....    1
 Number of Electrons    NEL             ....   36
Dispersion correction           -0.001421309
FINAL SINGLE POINT ENERGY      -231.464779235770
Dispersion correction           -0.000216689
FINAL SINGLE POINT ENERGY      -115.734539481329

CARTESIAN COORDINATES (ANGSTROEM)
---------------------------------
  C     -1.143472    3.251015   -8.383428
  O     -1.942154    2.903486   -9.464382
  H     -1.698939    3.509440  -10.183064
  H     -1.426148    2.504044   -7.571571
  H     -0.084644    3.152513   -8.594473
  H     -1.392792    4.268874   -8.070492
  C     -2.415535   -0.971302   -7.674667
  O     -3.117178   -0.081729   -6.746123
  H     -3.902999    0.348662   -7.180337
  H     -1.751958   -0.437656   -8.368405
  H     -1.859473   -1.788429   -7.245069
  H     -3.184254   -1.533560   -8.318336

 Multiplicity           Mult            ....    1
 Number of Electrons    NEL             ....   18
 Basis Dimension        Dim             ....  172

ORBITAL ENERGIES
----------------

  NO   OCC          E(Eh)            E(eV)
   0   2.0000     -19.235377      -523.4212
   1   2.0000     -10.323830      -280.9257
   2   2.0000      -1.114074       -30.3155
   3   2.0000      -0.795689       -21.6518
   4   2.0000      -0.597320       -16.2539
   5   2.0000      -0.536335       -14.5944
   6   2.0000      -0.523155       -14.2358
   7   2.0000      -0.425475       -11.5778
   8   2.0000      -0.376268       -10.2388
   9   0.0000       0.084384         2.2962
  10   0.0000       0.114929         3.1274
  11   0.0000       0.143696         3.9102
  12   0.0000       0.171031         4.6540
  13   0.0000       0.183330         4.9887

MULLIKEN ATOMIC CHARGES
-----------------------
   0 C :    0.001012
   1 O :    0.000024
   2 H :   -0.000005
   3 H :   -0.005122
   4 H :   -0.000107
   5 H :    0.000010
   6 C :   -0.179318
   7 O :   -0.489591
   8 H :    0.324639
   9 H :    0.113782
  10 H :    0.132536
  11 H :    0.102142
Sum of atomic charges:   -0.0000000

LOEWDIN ATOMIC CHARGES
----------------------
   0 C :   -0.001112
   1 O :   -0.000161
   2 H :   -0.000008
   3 H :   -0.003279
   4 H :   -0.000024
   5 H :   -0.000005
   6 C :   -0.359449
   7 O :   -0.128385
   8 H :    0.187566
   9 H :    0.095732
  10 H :    0.103384
  11 H :    0.105741

  Mayer bond orders larger than 0.1
B(  6-C ,  7-O ) :   0.9956 B(  6-C ,  9-H ) :   0.9693 B(  6-C , 10-H ) :   0.9697
B(  6-C , 11-H ) :   0.9843 B(  7-O ,  8-H ) :   0.8882

Dispersion correction           -0.000291856
FINAL SINGLE POINT ENERGY      -115.727803746381

DIPOLE MOMENT
-------------
                                X             Y             Z
Electronic contribution:     -0.66429       1.13625       1.41130
Nuclear contribution   :      0.45992      -1.27157      -2.07192
                        -----------------------------------------
Total Dipole Moment    :     -0.20438      -0.13533      -0.66062
                        -----------------------------------------
Magnitude (a.u.)       :      0.70463
Magnitude (Debye)      :      1.79102

Rotational constants in cm-1:     4.297678     0.764592     0.743372
Rotational constants in MHz : 128841.157221 22921.892769 22285.717066

                             ****ORCA TERMINATED NORMALLY****
TOTAL RUN TIME: 0 days 0 hours 1 minutes 11 seconds 469 msec
