                         Program Version 4.1.2  - RELEASE  -
|  1> #Run DFT-D3 single point of the dimer
|  2> ! wB97X-D3 def2-TZVP TIGHTSCF CHELPG PMODEL PAL8
|  3>
|  4> %base "19-68_DFT_AB"
|  5>
|  6> %scf
|  7> MaxIter 1000
|  8> end
|  9>
| 10> * xyz 0 1
| 11>   C                      -7.284692            9.448034             8.888117
| 12>   O                      -8.112072            10.027242            9.933787
| 13>   H                      -7.642018            10.829037            10.204778
| 14>   H                      -6.230103            9.391925             9.178771
| 15>   H                      -7.543175            8.418381             8.673947
| 16>   H                      -7.374277            10.050018            7.969878
| 17>   C                      -8.083648            4.187498             11.168312
| 18>   O                      -7.208548            4.716860             10.208641
| 19>   H                      -6.681572            5.322224             10.753894
| 20>   H                      -7.514104            3.685711             11.927039
| 21>   H                      -8.627675            4.861587             11.841901
| 22>   H                      -8.746128            3.439770             10.645515
| 23> *
| 24>
| 25> #Run DFT-D3 single point of the molecule with dimer basis set
| 26> $new_job
| 27> %base "19-68_DFT_A"
| 28> ! wB97X-D3 def2-TZVP TIGHTSCF CHELPG PMODEL
| 29>
| 30> %scf
| 31> MaxIter 1000
| 32> end
| 33>
| 34> * xyz 0 1
| 35>   C                      -7.284692            9.448034             8.888117
| 36>   O                      -8.112072            10.027242            9.933787
| 37>   H                      -7.642018            10.829037            10.204778
| 38>   H                      -6.230103            9.391925             9.178771
| 39>   H                      -7.543175            8.418381             8.673947
| 40>   H                      -7.374277            10.050018            7.969878
| 41>   C                    : -8.083648            4.187498             11.168312
| 42>   O                    : -7.208548            4.716860             10.208641
| 43>   H                    : -6.681572            5.322224             10.753894
| 44>   H                    : -7.514104            3.685711             11.927039
| 45>   H                    : -8.627675            4.861587             11.841901
| 46>   H                    : -8.746128            3.439770             10.645515
| 47> *
| 48>
| 49> #Run DFT-D3 single point of the particle with dimer basis set
| 50> $new_job
| 51> %base "19-68_DFT_B"
| 52> ! wB97X-D3 def2-TZVP TIGHTSCF CHELPG PMODEL
| 53>
| 54> %scf
| 55> MaxIter 1000
| 56> end
| 57>
| 58> * xyz 0 1
| 59>   C                    : -7.284692            9.448034             8.888117
| 60>   O                    : -8.112072            10.027242            9.933787
| 61>   H                    : -7.642018            10.829037            10.204778
| 62>   H                    : -6.230103            9.391925             9.178771
| 63>   H                    : -7.543175            8.418381             8.673947
| 64>   H                    : -7.374277            10.050018            7.969878
| 65>   C                      -8.083648            4.187498             11.168312
| 66>   O                      -7.208548            4.716860             10.208641
| 67>   H                      -6.681572            5.322224             10.753894
| 68>   H                      -7.514104            3.685711             11.927039
| 69>   H                      -8.627675            4.861587             11.841901
| 70>   H                      -8.746128            3.439770             10.645515
| 71> *
| 72>
| 73>                          ****END OF INPUT****
 Total Charge           Charge          ....    0
 Multiplicity           Mult            ....    1
 Number of Electrons    NEL             ....   36
Dispersion correction           -0.000716625
FINAL SINGLE POINT ENERGY      -231.463564241899
Dispersion correction           -0.000251047
FINAL SINGLE POINT ENERGY      -115.734649069835

CARTESIAN COORDINATES (ANGSTROEM)
---------------------------------
  C     -7.284692    9.448034    8.888117
  O     -8.112072   10.027242    9.933787
  H     -7.642018   10.829037   10.204778
  H     -6.230103    9.391925    9.178771
  H     -7.543175    8.418381    8.673947
  H     -7.374277   10.050018    7.969878
  C     -8.083648    4.187498   11.168312
  O     -7.208548    4.716860   10.208641
  H     -6.681572    5.322224   10.753894
  H     -7.514104    3.685711   11.927039
  H     -8.627675    4.861587   11.841901
  H     -8.746128    3.439770   10.645515

 Multiplicity           Mult            ....    1
 Number of Electrons    NEL             ....   18
 Basis Dimension        Dim             ....  172

ORBITAL ENERGIES
----------------

  NO   OCC          E(Eh)            E(eV)
   0   2.0000     -19.236508      -523.4520
   1   2.0000     -10.314070      -280.6601
   2   2.0000      -1.145144       -31.1610
   3   2.0000      -0.791854       -21.5475
   4   2.0000      -0.622468       -16.9382
   5   2.0000      -0.531531       -14.4637
   6   2.0000      -0.523013       -14.2319
   7   2.0000      -0.450163       -12.2496
   8   2.0000      -0.369811       -10.0631
   9   0.0000       0.085702         2.3321
  10   0.0000       0.112493         3.0611
  11   0.0000       0.152317         4.1447
  12   0.0000       0.171356         4.6628
  13   0.0000       0.191858         5.2207

MULLIKEN ATOMIC CHARGES
-----------------------
   0 C :    0.000817
   1 O :    0.000016
   2 H :    0.000003
   3 H :   -0.000013
   4 H :   -0.002277
   5 H :   -0.000068
   6 C :   -0.174617
   7 O :   -0.454240
   8 H :    0.312919
   9 H :    0.099255
  10 H :    0.097291
  11 H :    0.120915
Sum of atomic charges:   -0.0000000

LOEWDIN ATOMIC CHARGES
----------------------
   0 C :   -0.000188
   1 O :   -0.000008
   2 H :   -0.000000
   3 H :   -0.000008
   4 H :   -0.000748
   5 H :   -0.000005
   6 C :   -0.409630
   7 O :   -0.068032
   8 H :    0.179908
   9 H :    0.088507
  10 H :    0.092912
  11 H :    0.117294

  Mayer bond orders larger than 0.1
B(  6-C ,  7-O ) :   1.0012 B(  6-C ,  9-H ) :   0.9824 B(  6-C , 10-H ) :   0.9654
B(  6-C , 11-H ) :   0.9751 B(  7-O ,  8-H ) :   0.9009

Dispersion correction           -0.000223777
FINAL SINGLE POINT ENERGY      -115.728272008307

DIPOLE MOMENT
-------------
                                X             Y             Z
Electronic contribution:      1.02769       0.69252      -1.48425
Nuclear contribution   :     -1.00613      -0.52955       2.19691
                        -----------------------------------------
Total Dipole Moment    :      0.02156       0.16297       0.71267
                        -----------------------------------------
Magnitude (a.u.)       :      0.73138
Magnitude (Debye)      :      1.85902

Rotational constants in cm-1:     4.246728     0.856741     0.801802
Rotational constants in MHz : 127313.701704 25684.452949 24037.409384

                             ****ORCA TERMINATED NORMALLY****
TOTAL RUN TIME: 0 days 0 hours 0 minutes 46 seconds 841 msec
