                         Program Version 4.1.2  - RELEASE  -
|  1> #Run DFT geometry optimization
|  2> ! wB97X-D3 def2-TZVP TIGHTSCF Grid5 FinalGrid6 Opt CHELPG PAL4
|  3>
|  4> %base "1_geo_opt"
|  5> %geom MaxIter 500
|  6> end
|  7>
|  8> %geom
|  9>   Constraints
| 10>     { B 2 1 C }
| 11>   end
| 12> end
| 13>
| 14>
| 15> * xyz 0 1
| 16>   C                    3.011150             -1.181210            0.598685
| 17>   O                    4.394515             -1.128363            0.874500
| 18>   H                    4.772354             -0.378709            0.412300
| 19>   H                    2.806277             -1.319278            -0.469157
| 20>   H                    2.611474             -2.040578            1.136091
| 21>   H                    2.484599             -0.284804            0.945852
| 22> *
| 23>
| 24>                          ****END OF INPUT****
 Total Charge           Charge          ....    0
 Multiplicity           Mult            ....    1
 Number of Electrons    NEL             ....   18
Dispersion correction           -0.000239347
FINAL SINGLE POINT ENERGY      -115.738050704397
Dispersion correction            ... done
                    ***********************HURRAY********************

CARTESIAN COORDINATES (ANGSTROEM)
---------------------------------
  C      3.011208   -1.181233    0.598711
  O      4.394545   -1.128362    0.874491
  H      4.772312   -0.378675    0.412285
  H      2.806288   -1.319283   -0.469128
  H      2.611387   -2.040563    1.136066
  H      2.484629   -0.284826    0.945846

 Multiplicity           Mult            ....    1
 Number of Electrons    NEL             ....   18
 Basis Dimension        Dim             ....   86

ORBITAL ENERGIES
----------------

  NO   OCC          E(Eh)            E(eV)
   0   2.0000     -19.228156      -523.2247
   1   2.0000     -10.315101      -280.6882
   2   2.0000      -1.136656       -30.9300
   3   2.0000      -0.795265       -21.6403
   4   2.0000      -0.611505       -16.6399
   5   2.0000      -0.541757       -14.7419
   6   2.0000      -0.526309       -14.3216
   7   2.0000      -0.433764       -11.8033
   8   2.0000      -0.373578       -10.1656
   9   0.0000       0.116557         3.1717
  10   0.0000       0.156641         4.2624
  11   0.0000       0.202572         5.5123
  12   0.0000       0.205120         5.5816
  13   0.0000       0.226343         6.1591

MULLIKEN ATOMIC CHARGES
-----------------------
   0 C :   -0.150851
   1 O :   -0.477735
   2 H :    0.313121
   3 H :    0.098620
   4 H :    0.118221
   5 H :    0.098624
Sum of atomic charges:    0.0000000

LOEWDIN ATOMIC CHARGES
----------------------
   0 C :   -0.385286
   1 O :   -0.076465
   2 H :    0.166294
   3 H :    0.093388
   4 H :    0.108682
   5 H :    0.093387

  Mayer bond orders larger than 0.1
B(  0-C ,  1-O ) :   0.9987 B(  0-C ,  3-H ) :   0.9755 B(  0-C ,  4-H ) :   0.9749
B(  0-C ,  5-H ) :   0.9755 B(  1-O ,  2-H ) :   0.9000

Dispersion correction           -0.000239340
FINAL SINGLE POINT ENERGY      -115.738050720152

DIPOLE MOMENT
-------------
                                X             Y             Z
Electronic contribution:      1.75596      -0.02862       0.42007
Nuclear contribution   :     -2.06561       0.47638      -0.81780
                        -----------------------------------------
Total Dipole Moment    :     -0.30965       0.44776      -0.39773
                        -----------------------------------------
Magnitude (a.u.)       :      0.67421
Magnitude (Debye)      :      1.71370

Rotational constants in cm-1:     4.291602     0.833794     0.804856
Rotational constants in MHz : 128659.003291 24996.508794 24128.961473

                             ****ORCA TERMINATED NORMALLY****
TOTAL RUN TIME: 0 days 0 hours 0 minutes 35 seconds 448 msec
