                         Program Version 4.1.2  - RELEASE  -
|  1> #Run DFT-D3 single point of the dimer
|  2> ! wB97X-D3 def2-TZVP TIGHTSCF CHELPG PMODEL PAL8
|  3>
|  4> %base "14-74_DFT_AB"
|  5>
|  6> %scf
|  7> MaxIter 1000
|  8> end
|  9>
| 10> * xyz 0 1
| 11>   C                      -7.703937            4.864431             7.544231
| 12>   O                      -8.044865            6.226566             7.754114
| 13>   H                      -8.552644            6.657544             7.051836
| 14>   H                      -8.567473            4.275343             7.272627
| 15>   H                      -6.941389            4.675493             6.753926
| 16>   H                      -7.290078            4.411499             8.488377
| 17>   C                      -4.104141            4.952787             9.254623
| 18>   O                      -4.148534            4.013625             10.322634
| 19>   H                      -4.027651            4.611703             11.068694
| 20>   H                      -3.865106            4.422433             8.296219
| 21>   H                      -5.077578            5.429163             9.169970
| 22>   H                      -3.259929            5.648612             9.328171
| 23> *
| 24>
| 25> #Run DFT-D3 single point of the molecule with dimer basis set
| 26> $new_job
| 27> %base "14-74_DFT_A"
| 28> ! wB97X-D3 def2-TZVP TIGHTSCF CHELPG PMODEL
| 29>
| 30> %scf
| 31> MaxIter 1000
| 32> end
| 33>
| 34> * xyz 0 1
| 35>   C                      -7.703937            4.864431             7.544231
| 36>   O                      -8.044865            6.226566             7.754114
| 37>   H                      -8.552644            6.657544             7.051836
| 38>   H                      -8.567473            4.275343             7.272627
| 39>   H                      -6.941389            4.675493             6.753926
| 40>   H                      -7.290078            4.411499             8.488377
| 41>   C                    : -4.104141            4.952787             9.254623
| 42>   O                    : -4.148534            4.013625             10.322634
| 43>   H                    : -4.027651            4.611703             11.068694
| 44>   H                    : -3.865106            4.422433             8.296219
| 45>   H                    : -5.077578            5.429163             9.169970
| 46>   H                    : -3.259929            5.648612             9.328171
| 47> *
| 48>
| 49> #Run DFT-D3 single point of the particle with dimer basis set
| 50> $new_job
| 51> %base "14-74_DFT_B"
| 52> ! wB97X-D3 def2-TZVP TIGHTSCF CHELPG PMODEL
| 53>
| 54> %scf
| 55> MaxIter 1000
| 56> end
| 57>
| 58> * xyz 0 1
| 59>   C                    : -7.703937            4.864431             7.544231
| 60>   O                    : -8.044865            6.226566             7.754114
| 61>   H                    : -8.552644            6.657544             7.051836
| 62>   H                    : -8.567473            4.275343             7.272627
| 63>   H                    : -6.941389            4.675493             6.753926
| 64>   H                    : -7.290078            4.411499             8.488377
| 65>   C                      -4.104141            4.952787             9.254623
| 66>   O                      -4.148534            4.013625             10.322634
| 67>   H                      -4.027651            4.611703             11.068694
| 68>   H                      -3.865106            4.422433             8.296219
| 69>   H                      -5.077578            5.429163             9.169970
| 70>   H                      -3.259929            5.648612             9.328171
| 71> *
| 72>
| 73>                          ****END OF INPUT****
 Total Charge           Charge          ....    0
 Multiplicity           Mult            ....    1
 Number of Electrons    NEL             ....   36
Dispersion correction           -0.001486524
FINAL SINGLE POINT ENERGY      -231.467896718253
Dispersion correction           -0.000279199
FINAL SINGLE POINT ENERGY      -115.733547424965

CARTESIAN COORDINATES (ANGSTROEM)
---------------------------------
  C     -7.703937    4.864431    7.544231
  O     -8.044865    6.226566    7.754114
  H     -8.552644    6.657544    7.051836
  H     -8.567473    4.275343    7.272627
  H     -6.941389    4.675493    6.753926
  H     -7.290078    4.411499    8.488377
  C     -4.104141    4.952787    9.254623
  O     -4.148534    4.013625   10.322634
  H     -4.027651    4.611703   11.068694
  H     -3.865106    4.422433    8.296219
  H     -5.077578    5.429163    9.169970
  H     -3.259929    5.648612    9.328171

 Multiplicity           Mult            ....    1
 Number of Electrons    NEL             ....   18
 Basis Dimension        Dim             ....  172

ORBITAL ENERGIES
----------------

  NO   OCC          E(Eh)            E(eV)
   0   2.0000     -19.232655      -523.3472
   1   2.0000     -10.315465      -280.6981
   2   2.0000      -1.138642       -30.9840
   3   2.0000      -0.789941       -21.4954
   4   2.0000      -0.604635       -16.4530
   5   2.0000      -0.553057       -15.0494
   6   2.0000      -0.518637       -14.1128
   7   2.0000      -0.435421       -11.8484
   8   2.0000      -0.377339       -10.2679
   9   0.0000       0.086185         2.3452
  10   0.0000       0.116801         3.1783
  11   0.0000       0.153976         4.1899
  12   0.0000       0.167177         4.5491
  13   0.0000       0.184451         5.0192

MULLIKEN ATOMIC CHARGES
-----------------------
   0 C :   -0.002776
   1 O :    0.000079
   2 H :   -0.000013
   3 H :    0.000163
   4 H :   -0.000370
   5 H :    0.003465
   6 C :   -0.189266
   7 O :   -0.459343
   8 H :    0.313123
   9 H :    0.112867
  10 H :    0.110566
  11 H :    0.111507
Sum of atomic charges:   -0.0000000

LOEWDIN ATOMIC CHARGES
----------------------
   0 C :   -0.004102
   1 O :   -0.000183
   2 H :   -0.000015
   3 H :   -0.000039
   4 H :   -0.000498
   5 H :   -0.001680
   6 C :   -0.389807
   7 O :   -0.083744
   8 H :    0.174150
   9 H :    0.113164
  10 H :    0.096814
  11 H :    0.095940

  Mayer bond orders larger than 0.1
B(  6-C ,  7-O ) :   0.9941 B(  6-C ,  9-H ) :   0.9729 B(  6-C , 10-H ) :   0.9757
B(  6-C , 11-H ) :   0.9761 B(  7-O ,  8-H ) :   0.9045

Dispersion correction           -0.000225792
FINAL SINGLE POINT ENERGY      -115.732753503112

DIPOLE MOMENT
-------------
                                X             Y             Z
Electronic contribution:     -0.12323      -1.27600       1.34003
Nuclear contribution   :      0.23556       1.99935      -1.30106
                        -----------------------------------------
Total Dipole Moment    :      0.11233       0.72335       0.03898
                        -----------------------------------------
Magnitude (a.u.)       :      0.73306
Magnitude (Debye)      :      1.86329

Rotational constants in cm-1:     4.162610     0.827511     0.804567
Rotational constants in MHz : 124791.906056 24808.149955 24120.326307

                             ****ORCA TERMINATED NORMALLY****
TOTAL RUN TIME: 0 days 0 hours 0 minutes 54 seconds 424 msec
