                         Program Version 4.1.2  - RELEASE  -
|  1> #Run DFT-D3 single point of the dimer
|  2> ! wB97X-D3 def2-TZVP TIGHTSCF CHELPG PMODEL PAL8
|  3>
|  4> %base "1-76_DFT_AB"
|  5>
|  6> %scf
|  7> MaxIter 1000
|  8> end
|  9>
| 10> * xyz 0 1
| 11>   C                      -2.564663            -10.829491           0.819036
| 12>   O                      -1.332082            -11.025152           1.444712
| 13>   H                      -1.579110            -11.609815           2.161669
| 14>   H                      -2.334350            -10.176657           -0.055430
| 15>   H                      -2.996839            -11.752730           0.453297
| 16>   H                      -3.253794            -10.236978           1.399588
| 17>   C                      -7.803609            -10.950523           0.162393
| 18>   O                      -7.511823            -9.544146            -0.088906
| 19>   H                      -8.132574            -9.169331            -0.766150
| 20>   H                      -6.958207            -11.511024           0.455349
| 21>   H                      -8.632460            -10.992537           0.912694
| 22>   H                      -8.119000            -11.448685           -0.746248
| 23> *
| 24>
| 25> #Run DFT-D3 single point of the molecule with dimer basis set
| 26> $new_job
| 27> %base "1-76_DFT_A"
| 28> ! wB97X-D3 def2-TZVP TIGHTSCF CHELPG PMODEL
| 29>
| 30> %scf
| 31> MaxIter 1000
| 32> end
| 33>
| 34> * xyz 0 1
| 35>   C                      -2.564663            -10.829491           0.819036
| 36>   O                      -1.332082            -11.025152           1.444712
| 37>   H                      -1.579110            -11.609815           2.161669
| 38>   H                      -2.334350            -10.176657           -0.055430
| 39>   H                      -2.996839            -11.752730           0.453297
| 40>   H                      -3.253794            -10.236978           1.399588
| 41>   C                    : -7.803609            -10.950523           0.162393
| 42>   O                    : -7.511823            -9.544146            -0.088906
| 43>   H                    : -8.132574            -9.169331            -0.766150
| 44>   H                    : -6.958207            -11.511024           0.455349
| 45>   H                    : -8.632460            -10.992537           0.912694
| 46>   H                    : -8.119000            -11.448685           -0.746248
| 47> *
| 48>
| 49> #Run DFT-D3 single point of the particle with dimer basis set
| 50> $new_job
| 51> %base "1-76_DFT_B"
| 52> ! wB97X-D3 def2-TZVP TIGHTSCF CHELPG PMODEL
| 53>
| 54> %scf
| 55> MaxIter 1000
| 56> end
| 57>
| 58> * xyz 0 1
| 59>   C                    : -2.564663            -10.829491           0.819036
| 60>   O                    : -1.332082            -11.025152           1.444712
| 61>   H                    : -1.579110            -11.609815           2.161669
| 62>   H                    : -2.334350            -10.176657           -0.055430
| 63>   H                    : -2.996839            -11.752730           0.453297
| 64>   H                    : -3.253794            -10.236978           1.399588
| 65>   C                      -7.803609            -10.950523           0.162393
| 66>   O                      -7.511823            -9.544146            -0.088906
| 67>   H                      -8.132574            -9.169331            -0.766150
| 68>   H                      -6.958207            -11.511024           0.455349
| 69>   H                      -8.632460            -10.992537           0.912694
| 70>   H                      -8.119000            -11.448685           -0.746248
| 71> *
| 72>
| 73>                          ****END OF INPUT****
 Total Charge           Charge          ....    0
 Multiplicity           Mult            ....    1
 Number of Electrons    NEL             ....   36
Dispersion correction           -0.000714864
FINAL SINGLE POINT ENERGY      -231.464756489090
Dispersion correction           -0.000214971
FINAL SINGLE POINT ENERGY      -115.733717013404

CARTESIAN COORDINATES (ANGSTROEM)
---------------------------------
  C     -2.564663  -10.829491    0.819036
  O     -1.332082  -11.025152    1.444712
  H     -1.579110  -11.609815    2.161669
  H     -2.334350  -10.176657   -0.055430
  H     -2.996839  -11.752730    0.453297
  H     -3.253794  -10.236978    1.399588
  C     -7.803609  -10.950523    0.162393
  O     -7.511823   -9.544146   -0.088906
  H     -8.132574   -9.169331   -0.766150
  H     -6.958207  -11.511024    0.455349
  H     -8.632460  -10.992537    0.912694
  H     -8.119000  -11.448685   -0.746248

 Multiplicity           Mult            ....    1
 Number of Electrons    NEL             ....   18
 Basis Dimension        Dim             ....  172

ORBITAL ENERGIES
----------------

  NO   OCC          E(Eh)            E(eV)
   0   2.0000     -19.229399      -523.2585
   1   2.0000     -10.314634      -280.6754
   2   2.0000      -1.113784       -30.3076
   3   2.0000      -0.798326       -21.7236
   4   2.0000      -0.597609       -16.2618
   5   2.0000      -0.543272       -14.7832
   6   2.0000      -0.521582       -14.1930
   7   2.0000      -0.428538       -11.6611
   8   2.0000      -0.372790       -10.1441
   9   0.0000       0.089526         2.4361
  10   0.0000       0.112059         3.0493
  11   0.0000       0.148069         4.0292
  12   0.0000       0.168511         4.5854
  13   0.0000       0.187031         5.0894

MULLIKEN ATOMIC CHARGES
-----------------------
   0 C :    0.000008
   1 O :    0.000005
   2 H :    0.000002
   3 H :   -0.000007
   4 H :   -0.000058
   5 H :   -0.000100
   6 C :   -0.165524
   7 O :   -0.493900
   8 H :    0.318418
   9 H :    0.128740
  10 H :    0.105896
  11 H :    0.106520
Sum of atomic charges:   -0.0000000

LOEWDIN ATOMIC CHARGES
----------------------
   0 C :   -0.000068
   1 O :   -0.000002
   2 H :   -0.000001
   3 H :   -0.000003
   4 H :   -0.000040
   5 H :   -0.000034
   6 C :   -0.350268
   7 O :   -0.128380
   8 H :    0.183085
   9 H :    0.098191
  10 H :    0.102814
  11 H :    0.094707

  Mayer bond orders larger than 0.1
B(  6-C ,  7-O ) :   0.9938 B(  6-C ,  9-H ) :   0.9696 B(  6-C , 10-H ) :   0.9789
B(  6-C , 11-H ) :   0.9799 B(  7-O ,  8-H ) :   0.8932

Dispersion correction           -0.000263254
FINAL SINGLE POINT ENERGY      -115.730636446418

DIPOLE MOMENT
-------------
                                X             Y             Z
Electronic contribution:      0.55962       1.68338      -0.16847
Nuclear contribution   :     -1.05917      -2.06703      -0.18173
                        -----------------------------------------
Total Dipole Moment    :     -0.49954      -0.38365      -0.35020
                        -----------------------------------------
Magnitude (a.u.)       :      0.72068
Magnitude (Debye)      :      1.83182

Rotational constants in cm-1:     4.313190     0.782381     0.764763
Rotational constants in MHz : 129306.178116 23455.201782 22927.028226

                             ****ORCA TERMINATED NORMALLY****
TOTAL RUN TIME: 0 days 0 hours 6 minutes 22 seconds 808 msec
