                         Program Version 4.1.2  - RELEASE  -
|  1> #Run DFT-D3 single point of the dimer
|  2> ! wB97X-D3 def2-TZVP TIGHTSCF CHELPG PMODEL PAL8
|  3>
|  4> %base "1-137_DFT_AB"
|  5>
|  6> %scf
|  7> MaxIter 1000
|  8> end
|  9>
| 10> * xyz 0 1
| 11>   C                      9.665836             -0.217064            10.196093
| 12>   O                      9.826703             -1.470879            10.780633
| 13>   H                      10.759762            -1.664107            10.755609
| 14>   H                      8.702707             0.283325             10.335303
| 15>   H                      10.272908            0.494257             10.775739
| 16>   H                      9.978906             -0.181398            9.110003
| 17>   C                      8.467162             2.354770             11.255922
| 18>   O                      8.009597             2.672817             9.968138
| 19>   H                      8.387895             3.480658             9.743753
| 20>   H                      7.633172             1.947723             11.886561
| 21>   H                      9.256408             1.671867             11.113225
| 22>   H                      8.894996             3.226188             11.824744
| 23> *
| 24>
| 25> #Run DFT-D3 single point of the molecule with dimer basis set
| 26> $new_job
| 27> %base "1-137_DFT_A"
| 28> ! wB97X-D3 def2-TZVP TIGHTSCF CHELPG PMODEL
| 29>
| 30> %scf
| 31> MaxIter 1000
| 32> end
| 33>
| 34> * xyz 0 1
| 35>   C                      9.665836             -0.217064            10.196093
| 36>   O                      9.826703             -1.470879            10.780633
| 37>   H                      10.759762            -1.664107            10.755609
| 38>   H                      8.702707             0.283325             10.335303
| 39>   H                      10.272908            0.494257             10.775739
| 40>   H                      9.978906             -0.181398            9.110003
| 41>   C                    : 8.467162             2.354770             11.255922
| 42>   O                    : 8.009597             2.672817             9.968138
| 43>   H                    : 8.387895             3.480658             9.743753
| 44>   H                    : 7.633172             1.947723             11.886561
| 45>   H                    : 9.256408             1.671867             11.113225
| 46>   H                    : 8.894996             3.226188             11.824744
| 47> *
| 48>
| 49> #Run DFT-D3 single point of the particle with dimer basis set
| 50> $new_job
| 51> %base "1-137_DFT_B"
| 52> ! wB97X-D3 def2-TZVP TIGHTSCF CHELPG PMODEL
| 53>
| 54> %scf
| 55> MaxIter 1000
| 56> end
| 57>
| 58> * xyz 0 1
| 59>   C                    : 9.665836             -0.217064            10.196093
| 60>   O                    : 9.826703             -1.470879            10.780633
| 61>   H                    : 10.759762            -1.664107            10.755609
| 62>   H                    : 8.702707             0.283325             10.335303
| 63>   H                    : 10.272908            0.494257             10.775739
| 64>   H                    : 9.978906             -0.181398            9.110003
| 65>   C                      8.467162             2.354770             11.255922
| 66>   O                      8.009597             2.672817             9.968138
| 67>   H                      8.387895             3.480658             9.743753
| 68>   H                      7.633172             1.947723             11.886561
| 69>   H                      9.256408             1.671867             11.113225
| 70>   H                      8.894996             3.226188             11.824744
| 71> *
| 72>
| 73>                          ****END OF INPUT****
 Total Charge           Charge          ....    0
 Multiplicity           Mult            ....    1
 Number of Electrons    NEL             ....   36
Dispersion correction           -0.001947722
FINAL SINGLE POINT ENERGY      -231.447992282659
Dispersion correction           -0.000234701
FINAL SINGLE POINT ENERGY      -115.730139500327

CARTESIAN COORDINATES (ANGSTROEM)
---------------------------------
  C      9.665836   -0.217064   10.196093
  O      9.826703   -1.470879   10.780633
  H     10.759762   -1.664107   10.755609
  H      8.702707    0.283325   10.335303
  H     10.272908    0.494257   10.775739
  H      9.978906   -0.181398    9.110003
  C      8.467162    2.354770   11.255922
  O      8.009597    2.672817    9.968138
  H      8.387895    3.480658    9.743753
  H      7.633172    1.947723   11.886561
  H      9.256408    1.671867   11.113225
  H      8.894996    3.226188   11.824744

 Multiplicity           Mult            ....    1
 Number of Electrons    NEL             ....   18
 Basis Dimension        Dim             ....  172

ORBITAL ENERGIES
----------------

  NO   OCC          E(Eh)            E(eV)
   0   2.0000     -19.225918      -523.1638
   1   2.0000     -10.313442      -280.6430
   2   2.0000      -1.148933       -31.2640
   3   2.0000      -0.796454       -21.6726
   4   2.0000      -0.616852       -16.7854
   5   2.0000      -0.551757       -15.0141
   6   2.0000      -0.521915       -14.2020
   7   2.0000      -0.433946       -11.8083
   8   2.0000      -0.374601       -10.1934
   9   0.0000       0.094276         2.5654
  10   0.0000       0.123341         3.3563
  11   0.0000       0.158762         4.3201
  12   0.0000       0.182412         4.9637
  13   0.0000       0.195832         5.3289

MULLIKEN ATOMIC CHARGES
-----------------------
   0 C :   -0.000673
   1 O :    0.000491
   2 H :    0.000103
   3 H :    0.007745
   4 H :    0.003897
   5 H :   -0.000134
   6 C :   -0.175714
   7 O :   -0.461545
   8 H :    0.308743
   9 H :    0.114114
  10 H :    0.088394
  11 H :    0.114579
Sum of atomic charges:    0.0000000

LOEWDIN ATOMIC CHARGES
----------------------
   0 C :   -0.036364
   1 O :   -0.000079
   2 H :   -0.000023
   3 H :   -0.018991
   4 H :   -0.019988
   5 H :   -0.000494
   6 C :   -0.362846
   7 O :   -0.041064
   8 H :    0.143952
   9 H :    0.113102
  10 H :    0.120231
  11 H :    0.102563

  Mayer bond orders larger than 0.1
B(  6-C ,  7-O ) :   1.0022 B(  6-C ,  9-H ) :   0.9772 B(  6-C , 10-H ) :   0.9781
B(  6-C , 11-H ) :   0.9830 B(  7-O ,  8-H ) :   0.9091

Dispersion correction           -0.000230469
FINAL SINGLE POINT ENERGY      -115.730820945780

DIPOLE MOMENT
-------------
                                X             Y             Z
Electronic contribution:     -0.67282       0.26931      -1.68428
Nuclear contribution   :      1.10302       0.15013       2.03021
                        -----------------------------------------
Total Dipole Moment    :      0.43020       0.41943       0.34593
                        -----------------------------------------
Magnitude (a.u.)       :      0.69329
Magnitude (Debye)      :      1.76221

Rotational constants in cm-1:     4.292200     0.846097     0.816565
Rotational constants in MHz : 128676.927581 25365.347116 24480.010128

                             ****ORCA TERMINATED NORMALLY****
TOTAL RUN TIME: 0 days 0 hours 5 minutes 38 seconds 633 msec
