                         Program Version 4.1.2  - RELEASE  -
|  1> #Run DFT-D3 single point of the dimer
|  2> ! wB97X-D3 def2-TZVP TIGHTSCF CHELPG PMODEL PAL8
|  3>
|  4> %base "22-98_DFT_AB"
|  5>
|  6> %scf
|  7> MaxIter 1000
|  8> end
|  9>
| 10> * xyz 0 1
| 11>   C                      8.152796             8.556054             -5.321419
| 12>   O                      6.909219             9.044673             -4.812207
| 13>   H                      6.285718             8.702034             -5.470259
| 14>   H                      8.064256             8.349003             -6.365875
| 15>   H                      9.010342             9.257000             -5.240811
| 16>   H                      8.377186             7.606242             -4.788367
| 17>   C                      10.262154            10.435157            -8.088163
| 18>   O                      9.848218             11.768695            -8.292930
| 19>   H                      9.705085             12.235236            -7.455349
| 20>   H                      10.759263            10.003097            -8.976931
| 21>   H                      11.015210            10.520307            -7.315473
| 22>   H                      9.493767             9.782010             -7.710740
| 23> *
| 24>
| 25> #Run DFT-D3 single point of the molecule with dimer basis set
| 26> $new_job
| 27> %base "22-98_DFT_A"
| 28> ! wB97X-D3 def2-TZVP TIGHTSCF CHELPG PMODEL
| 29>
| 30> %scf
| 31> MaxIter 1000
| 32> end
| 33>
| 34> * xyz 0 1
| 35>   C                      8.152796             8.556054             -5.321419
| 36>   O                      6.909219             9.044673             -4.812207
| 37>   H                      6.285718             8.702034             -5.470259
| 38>   H                      8.064256             8.349003             -6.365875
| 39>   H                      9.010342             9.257000             -5.240811
| 40>   H                      8.377186             7.606242             -4.788367
| 41>   C                    : 10.262154            10.435157            -8.088163
| 42>   O                    : 9.848218             11.768695            -8.292930
| 43>   H                    : 9.705085             12.235236            -7.455349
| 44>   H                    : 10.759263            10.003097            -8.976931
| 45>   H                    : 11.015210            10.520307            -7.315473
| 46>   H                    : 9.493767             9.782010             -7.710740
| 47> *
| 48>
| 49> #Run DFT-D3 single point of the particle with dimer basis set
| 50> $new_job
| 51> %base "22-98_DFT_B"
| 52> ! wB97X-D3 def2-TZVP TIGHTSCF CHELPG PMODEL
| 53>
| 54> %scf
| 55> MaxIter 1000
| 56> end
| 57>
| 58> * xyz 0 1
| 59>   C                    : 8.152796             8.556054             -5.321419
| 60>   O                    : 6.909219             9.044673             -4.812207
| 61>   H                    : 6.285718             8.702034             -5.470259
| 62>   H                    : 8.064256             8.349003             -6.365875
| 63>   H                    : 9.010342             9.257000             -5.240811
| 64>   H                    : 8.377186             7.606242             -4.788367
| 65>   C                      10.262154            10.435157            -8.088163
| 66>   O                      9.848218             11.768695            -8.292930
| 67>   H                      9.705085             12.235236            -7.455349
| 68>   H                      10.759263            10.003097            -8.976931
| 69>   H                      11.015210            10.520307            -7.315473
| 70>   H                      9.493767             9.782010             -7.710740
| 71> *
| 72>
| 73>                          ****END OF INPUT****
 Total Charge           Charge          ....    0
 Multiplicity           Mult            ....    1
 Number of Electrons    NEL             ....   36
Dispersion correction           -0.001414632
FINAL SINGLE POINT ENERGY      -231.464636052969
Dispersion correction           -0.000234502
FINAL SINGLE POINT ENERGY      -115.731870004471

CARTESIAN COORDINATES (ANGSTROEM)
---------------------------------
  C      8.152796    8.556054   -5.321419
  O      6.909219    9.044673   -4.812207
  H      6.285718    8.702034   -5.470259
  H      8.064256    8.349003   -6.365875
  H      9.010342    9.257000   -5.240811
  H      8.377186    7.606242   -4.788367
  C     10.262154   10.435157   -8.088163
  O      9.848218   11.768695   -8.292930
  H      9.705085   12.235236   -7.455349
  H     10.759263   10.003097   -8.976931
  H     11.015210   10.520307   -7.315473
  H      9.493767    9.782010   -7.710740

 Multiplicity           Mult            ....    1
 Number of Electrons    NEL             ....   18
 Basis Dimension        Dim             ....  172

ORBITAL ENERGIES
----------------

  NO   OCC          E(Eh)            E(eV)
   0   2.0000     -19.226388      -523.1766
   1   2.0000     -10.311399      -280.5874
   2   2.0000      -1.131815       -30.7983
   3   2.0000      -0.796131       -21.6638
   4   2.0000      -0.610388       -16.6095
   5   2.0000      -0.544126       -14.8064
   6   2.0000      -0.531539       -14.4639
   7   2.0000      -0.424450       -11.5499
   8   2.0000      -0.370517       -10.0823
   9   0.0000       0.082367         2.2413
  10   0.0000       0.116120         3.1598
  11   0.0000       0.151968         4.1353
  12   0.0000       0.173273         4.7150
  13   0.0000       0.189213         5.1488

MULLIKEN ATOMIC CHARGES
-----------------------
   0 C :    0.002253
   1 O :   -0.000206
   2 H :   -0.000063
   3 H :   -0.001205
   4 H :   -0.001053
   5 H :    0.000181
   6 C :   -0.155948
   7 O :   -0.488143
   8 H :    0.319064
   9 H :    0.120861
  10 H :    0.100870
  11 H :    0.103390
Sum of atomic charges:    0.0000000

LOEWDIN ATOMIC CHARGES
----------------------
   0 C :   -0.005250
   1 O :   -0.000015
   2 H :   -0.000006
   3 H :   -0.003584
   4 H :   -0.001937
   5 H :   -0.000019
   6 C :   -0.379393
   7 O :   -0.084999
   8 H :    0.173484
   9 H :    0.111917
  10 H :    0.095587
  11 H :    0.094216

  Mayer bond orders larger than 0.1
B(  6-C ,  7-O ) :   0.9908 B(  6-C ,  9-H ) :   0.9684 B(  6-C , 10-H ) :   0.9978
B(  6-C , 11-H ) :   0.9671 B(  7-O ,  8-H ) :   0.8931

Dispersion correction           -0.000233960
FINAL SINGLE POINT ENERGY      -115.732230382026

DIPOLE MOMENT
-------------
                                X             Y             Z
Electronic contribution:     -0.61464       1.59413      -0.48225
Nuclear contribution   :      0.71085      -1.83313       1.11507
                        -----------------------------------------
Total Dipole Moment    :      0.09620      -0.23900       0.63282
                        -----------------------------------------
Magnitude (a.u.)       :      0.68326
Magnitude (Debye)      :      1.73670

Rotational constants in cm-1:     4.364582     0.833343     0.802222
Rotational constants in MHz : 130846.878711 24982.982714 24050.002129

                             ****ORCA TERMINATED NORMALLY****
TOTAL RUN TIME: 0 days 0 hours 0 minutes 47 seconds 722 msec
