                         Program Version 4.1.2  - RELEASE  -
|  1> #Run DFT-D3 single point of the dimer
|  2> ! wB97X-D3 def2-TZVP TIGHTSCF CHELPG PMODEL PAL8
|  3>
|  4> %base "22-207_DFT_AB"
|  5>
|  6> %scf
|  7> MaxIter 1000
|  8> end
|  9>
| 10> * xyz 0 1
| 11>   C                      -2.562139            -3.045690            -7.339028
| 12>   O                      -1.235167            -3.429709            -7.022291
| 13>   H                      -0.707073            -3.079050            -7.717613
| 14>   H                      -2.916041            -3.229346            -8.340485
| 15>   H                      -3.183797            -3.662519            -6.608650
| 16>   H                      -2.642464            -1.999985            -7.043889
| 17>   C                      0.511696             -5.035724            -4.414051
| 18>   O                      -0.461981            -4.010277            -4.344628
| 19>   H                      -0.624218            -3.699652            -5.237201
| 20>   H                      1.403724             -4.777239            -4.950176
| 21>   H                      0.839149             -5.174836            -3.425856
| 22>   H                      0.079656             -5.903460            -4.905516
| 23> *
| 24>
| 25> #Run DFT-D3 single point of the molecule with dimer basis set
| 26> $new_job
| 27> %base "22-207_DFT_A"
| 28> ! wB97X-D3 def2-TZVP TIGHTSCF CHELPG PMODEL
| 29>
| 30> %scf
| 31> MaxIter 1000
| 32> end
| 33>
| 34> * xyz 0 1
| 35>   C                      -2.562139            -3.045690            -7.339028
| 36>   O                      -1.235167            -3.429709            -7.022291
| 37>   H                      -0.707073            -3.079050            -7.717613
| 38>   H                      -2.916041            -3.229346            -8.340485
| 39>   H                      -3.183797            -3.662519            -6.608650
| 40>   H                      -2.642464            -1.999985            -7.043889
| 41>   C                    : 0.511696             -5.035724            -4.414051
| 42>   O                    : -0.461981            -4.010277            -4.344628
| 43>   H                    : -0.624218            -3.699652            -5.237201
| 44>   H                    : 1.403724             -4.777239            -4.950176
| 45>   H                    : 0.839149             -5.174836            -3.425856
| 46>   H                    : 0.079656             -5.903460            -4.905516
| 47> *
| 48>
| 49> #Run DFT-D3 single point of the particle with dimer basis set
| 50> $new_job
| 51> %base "22-207_DFT_B"
| 52> ! wB97X-D3 def2-TZVP TIGHTSCF CHELPG PMODEL
| 53>
| 54> %scf
| 55> MaxIter 1000
| 56> end
| 57>
| 58> * xyz 0 1
| 59>   C                    : -2.562139            -3.045690            -7.339028
| 60>   O                    : -1.235167            -3.429709            -7.022291
| 61>   H                    : -0.707073            -3.079050            -7.717613
| 62>   H                    : -2.916041            -3.229346            -8.340485
| 63>   H                    : -3.183797            -3.662519            -6.608650
| 64>   H                    : -2.642464            -1.999985            -7.043889
| 65>   C                      0.511696             -5.035724            -4.414051
| 66>   O                      -0.461981            -4.010277            -4.344628
| 67>   H                      -0.624218            -3.699652            -5.237201
| 68>   H                      1.403724             -4.777239            -4.950176
| 69>   H                      0.839149             -5.174836            -3.425856
| 70>   H                      0.079656             -5.903460            -4.905516
| 71> *
| 72>
| 73>                          ****END OF INPUT****
 Total Charge           Charge          ....    0
 Multiplicity           Mult            ....    1
 Number of Electrons    NEL             ....   36
Dispersion correction           -0.001656441
FINAL SINGLE POINT ENERGY      -231.474786944837
Dispersion correction           -0.000229419
FINAL SINGLE POINT ENERGY      -115.732419719368

CARTESIAN COORDINATES (ANGSTROEM)
---------------------------------
  C     -2.562139   -3.045690   -7.339028
  O     -1.235167   -3.429709   -7.022291
  H     -0.707073   -3.079050   -7.717613
  H     -2.916041   -3.229346   -8.340485
  H     -3.183797   -3.662519   -6.608650
  H     -2.642464   -1.999985   -7.043889
  C      0.511696   -5.035724   -4.414051
  O     -0.461981   -4.010277   -4.344628
  H     -0.624218   -3.699652   -5.237201
  H      1.403724   -4.777239   -4.950176
  H      0.839149   -5.174836   -3.425856
  H      0.079656   -5.903460   -4.905516

 Multiplicity           Mult            ....    1
 Number of Electrons    NEL             ....   18
 Basis Dimension        Dim             ....  172

ORBITAL ENERGIES
----------------

  NO   OCC          E(Eh)            E(eV)
   0   2.0000     -19.228874      -523.2443
   1   2.0000     -10.304145      -280.3900
   2   2.0000      -1.135389       -30.8955
   3   2.0000      -0.801028       -21.7971
   4   2.0000      -0.613276       -16.6881
   5   2.0000      -0.550820       -14.9886
   6   2.0000      -0.520316       -14.1585
   7   2.0000      -0.438501       -11.9322
   8   2.0000      -0.373800       -10.1716
   9   0.0000       0.070961         1.9309
  10   0.0000       0.131703         3.5838
  11   0.0000       0.159608         4.3432
  12   0.0000       0.166541         4.5318
  13   0.0000       0.189555         5.1580

MULLIKEN ATOMIC CHARGES
-----------------------
   0 C :   -0.001687
   1 O :   -0.005011
   2 H :   -0.000275
   3 H :   -0.000005
   4 H :   -0.001374
   5 H :    0.000038
   6 C :   -0.156101
   7 O :   -0.469302
   8 H :    0.311943
   9 H :    0.100932
  10 H :    0.120836
  11 H :    0.100004
Sum of atomic charges:   -0.0000000

LOEWDIN ATOMIC CHARGES
----------------------
   0 C :   -0.003703
   1 O :   -0.022561
   2 H :   -0.001356
   3 H :   -0.000064
   4 H :   -0.000922
   5 H :   -0.000141
   6 C :   -0.372415
   7 O :   -0.064033
   8 H :    0.176342
   9 H :    0.091127
  10 H :    0.101711
  11 H :    0.096016

  Mayer bond orders larger than 0.1
B(  6-C ,  7-O ) :   0.9934 B(  6-C ,  9-H ) :   0.9760 B(  6-C , 10-H ) :   0.9773
B(  6-C , 11-H ) :   0.9779 B(  7-O ,  8-H ) :   0.9073

Dispersion correction           -0.000226021
FINAL SINGLE POINT ENERGY      -115.734361888095

DIPOLE MOMENT
-------------
                                X             Y             Z
Electronic contribution:     -1.21724       1.22633       0.25906
Nuclear contribution   :      1.53161      -1.43215      -0.83656
                        -----------------------------------------
Total Dipole Moment    :      0.31437      -0.20581      -0.57749
                        -----------------------------------------
Magnitude (a.u.)       :      0.68898
Magnitude (Debye)      :      1.75124

Rotational constants in cm-1:     4.405393     0.838983     0.809306
Rotational constants in MHz : 132070.344738 25152.080155 24262.368706

                             ****ORCA TERMINATED NORMALLY****
TOTAL RUN TIME: 0 days 0 hours 1 minutes 7 seconds 751 msec
