                         Program Version 4.1.2  - RELEASE  -
|  1> #Run DFT-D3 single point of the dimer
|  2> ! wB97X-D3 def2-TZVP TIGHTSCF CHELPG PMODEL PAL8
|  3>
|  4> %base "19-132_DFT_AB"
|  5>
|  6> %scf
|  7> MaxIter 1000
|  8> end
|  9>
| 10> * xyz 0 1
| 11>   C                      -2.423555            9.589600             4.384260
| 12>   O                      -2.114661            10.943369            4.153612
| 13>   H                      -2.578880            11.475667            4.847472
| 14>   H                      -3.340220            9.227224             3.991830
| 15>   H                      -1.603882            8.984377             4.046865
| 16>   H                      -2.506658            9.472759             5.502255
| 17>   C                      0.100163             9.903639             1.913833
| 18>   O                      -0.652059            11.123245            1.964802
| 19>   H                      -1.082288            11.158781            2.824441
| 20>   H                      1.099654             10.060881            2.397179
| 21>   H                      -0.378590            9.140360             2.583392
| 22>   H                      0.141244             9.425649             0.834233
| 23> *
| 24>
| 25> #Run DFT-D3 single point of the molecule with dimer basis set
| 26> $new_job
| 27> %base "19-132_DFT_A"
| 28> ! wB97X-D3 def2-TZVP TIGHTSCF CHELPG PMODEL
| 29>
| 30> %scf
| 31> MaxIter 1000
| 32> end
| 33>
| 34> * xyz 0 1
| 35>   C                      -2.423555            9.589600             4.384260
| 36>   O                      -2.114661            10.943369            4.153612
| 37>   H                      -2.578880            11.475667            4.847472
| 38>   H                      -3.340220            9.227224             3.991830
| 39>   H                      -1.603882            8.984377             4.046865
| 40>   H                      -2.506658            9.472759             5.502255
| 41>   C                    : 0.100163             9.903639             1.913833
| 42>   O                    : -0.652059            11.123245            1.964802
| 43>   H                    : -1.082288            11.158781            2.824441
| 44>   H                    : 1.099654             10.060881            2.397179
| 45>   H                    : -0.378590            9.140360             2.583392
| 46>   H                    : 0.141244             9.425649             0.834233
| 47> *
| 48>
| 49> #Run DFT-D3 single point of the particle with dimer basis set
| 50> $new_job
| 51> %base "19-132_DFT_B"
| 52> ! wB97X-D3 def2-TZVP TIGHTSCF CHELPG PMODEL
| 53>
| 54> %scf
| 55> MaxIter 1000
| 56> end
| 57>
| 58> * xyz 0 1
| 59>   C                    : -2.423555            9.589600             4.384260
| 60>   O                    : -2.114661            10.943369            4.153612
| 61>   H                    : -2.578880            11.475667            4.847472
| 62>   H                    : -3.340220            9.227224             3.991830
| 63>   H                    : -1.603882            8.984377             4.046865
| 64>   H                    : -2.506658            9.472759             5.502255
| 65>   C                      0.100163             9.903639             1.913833
| 66>   O                      -0.652059            11.123245            1.964802
| 67>   H                      -1.082288            11.158781            2.824441
| 68>   H                      1.099654             10.060881            2.397179
| 69>   H                      -0.378590            9.140360             2.583392
| 70>   H                      0.141244             9.425649             0.834233
| 71> *
| 72>
| 73>                          ****END OF INPUT****
 Total Charge           Charge          ....    0
 Multiplicity           Mult            ....    1
 Number of Electrons    NEL             ....   36
Dispersion correction           -0.002134779
FINAL SINGLE POINT ENERGY      -231.465219396512
Dispersion correction           -0.000233921
FINAL SINGLE POINT ENERGY      -115.732350256710

CARTESIAN COORDINATES (ANGSTROEM)
---------------------------------
  C     -2.423555    9.589600    4.384260
  O     -2.114661   10.943369    4.153612
  H     -2.578880   11.475667    4.847472
  H     -3.340220    9.227224    3.991830
  H     -1.603882    8.984377    4.046865
  H     -2.506658    9.472759    5.502255
  C      0.100163    9.903639    1.913833
  O     -0.652059   11.123245    1.964802
  H     -1.082288   11.158781    2.824441
  H      1.099654   10.060881    2.397179
  H     -0.378590    9.140360    2.583392
  H      0.141244    9.425649    0.834233

 Multiplicity           Mult            ....    1
 Number of Electrons    NEL             ....   18
 Basis Dimension        Dim             ....  172

ORBITAL ENERGIES
----------------

  NO   OCC          E(Eh)            E(eV)
   0   2.0000     -19.232737      -523.3494
   1   2.0000     -10.330884      -281.1177
   2   2.0000      -1.132149       -30.8073
   3   2.0000      -0.785078       -21.3631
   4   2.0000      -0.608492       -16.5579
   5   2.0000      -0.536034       -14.5862
   6   2.0000      -0.516968       -14.0674
   7   2.0000      -0.431518       -11.7422
   8   2.0000      -0.373969       -10.1762
   9   0.0000       0.069558         1.8928
  10   0.0000       0.135991         3.7005
  11   0.0000       0.142346         3.8734
  12   0.0000       0.170178         4.6308
  13   0.0000       0.191355         5.2070

MULLIKEN ATOMIC CHARGES
-----------------------
   0 C :   -0.006501
   1 O :   -0.007475
   2 H :   -0.000544
   3 H :    0.000359
   4 H :    0.003564
   5 H :    0.000125
   6 C :   -0.178710
   7 O :   -0.466315
   8 H :    0.321597
   9 H :    0.112865
  10 H :    0.096891
  11 H :    0.124144
Sum of atomic charges:   -0.0000000

LOEWDIN ATOMIC CHARGES
----------------------
   0 C :   -0.014814
   1 O :   -0.036710
   2 H :   -0.001400
   3 H :   -0.000222
   4 H :   -0.012052
   5 H :   -0.000148
   6 C :   -0.381201
   7 O :   -0.073428
   8 H :    0.188551
   9 H :    0.101200
  10 H :    0.107098
  11 H :    0.123124

  Mayer bond orders larger than 0.1
B(  6-C ,  7-O ) :   0.9861 B(  6-C ,  9-H ) :   0.9743 B(  6-C , 10-H ) :   0.9789
B(  6-C , 11-H ) :   0.9639 B(  7-O ,  8-H ) :   0.9010

Dispersion correction           -0.000263356
FINAL SINGLE POINT ENERGY      -115.728473570430

DIPOLE MOMENT
-------------
                                X             Y             Z
Electronic contribution:     -0.88745       1.66660      -0.17236
Nuclear contribution   :      0.89522      -2.13598       0.71134
                        -----------------------------------------
Total Dipole Moment    :      0.00778      -0.46938       0.53898
                        -----------------------------------------
Magnitude (a.u.)       :      0.71476
Magnitude (Debye)      :      1.81677

Rotational constants in cm-1:     3.999765     0.805322     0.773419
Rotational constants in MHz : 119909.935497 24142.949532 23186.522497

                             ****ORCA TERMINATED NORMALLY****
TOTAL RUN TIME: 0 days 0 hours 0 minutes 52 seconds 455 msec
