                         Program Version 4.1.2  - RELEASE  -
|  1> #Run DFT-D3 single point of the dimer
|  2> ! wB97X-D3 def2-TZVP TIGHTSCF CHELPG PMODEL PAL8
|  3>
|  4> %base "11-12_DFT_AB"
|  5>
|  6> %scf
|  7> MaxIter 1000
|  8> end
|  9>
| 10> * xyz 0 1
| 11>   C                      -2.148013            2.129847             1.911966
| 12>   O                      -0.703100            2.202816             2.039990
| 13>   H                      -0.327344            2.930984             1.522731
| 14>   H                      -2.414317            2.238284             0.914172
| 15>   H                      -2.582117            1.155431             2.198879
| 16>   H                      -2.594961            2.946416             2.554262
| 17>   C                      -6.242248            -0.142471            2.374967
| 18>   O                      -6.795535            0.871142             1.528577
| 19>   H                      -6.086667            1.558375             1.634918
| 20>   H                      -7.005123            -0.500635            3.005440
| 21>   H                      -5.854555            -0.967482            1.802231
| 22>   H                      -5.386707            0.238985             2.896178
| 23> *
| 24>
| 25> #Run DFT-D3 single point of the molecule with dimer basis set
| 26> $new_job
| 27> %base "11-12_DFT_A"
| 28> ! wB97X-D3 def2-TZVP TIGHTSCF CHELPG PMODEL
| 29>
| 30> %scf
| 31> MaxIter 1000
| 32> end
| 33>
| 34> * xyz 0 1
| 35>   C                      -2.148013            2.129847             1.911966
| 36>   O                      -0.703100            2.202816             2.039990
| 37>   H                      -0.327344            2.930984             1.522731
| 38>   H                      -2.414317            2.238284             0.914172
| 39>   H                      -2.582117            1.155431             2.198879
| 40>   H                      -2.594961            2.946416             2.554262
| 41>   C                    : -6.242248            -0.142471            2.374967
| 42>   O                    : -6.795535            0.871142             1.528577
| 43>   H                    : -6.086667            1.558375             1.634918
| 44>   H                    : -7.005123            -0.500635            3.005440
| 45>   H                    : -5.854555            -0.967482            1.802231
| 46>   H                    : -5.386707            0.238985             2.896178
| 47> *
| 48>
| 49> #Run DFT-D3 single point of the particle with dimer basis set
| 50> $new_job
| 51> %base "11-12_DFT_B"
| 52> ! wB97X-D3 def2-TZVP TIGHTSCF CHELPG PMODEL
| 53>
| 54> %scf
| 55> MaxIter 1000
| 56> end
| 57>
| 58> * xyz 0 1
| 59>   C                    : -2.148013            2.129847             1.911966
| 60>   O                    : -0.703100            2.202816             2.039990
| 61>   H                    : -0.327344            2.930984             1.522731
| 62>   H                    : -2.414317            2.238284             0.914172
| 63>   H                    : -2.582117            1.155431             2.198879
| 64>   H                    : -2.594961            2.946416             2.554262
| 65>   C                      -6.242248            -0.142471            2.374967
| 66>   O                      -6.795535            0.871142             1.528577
| 67>   H                      -6.086667            1.558375             1.634918
| 68>   H                      -7.005123            -0.500635            3.005440
| 69>   H                      -5.854555            -0.967482            1.802231
| 70>   H                      -5.386707            0.238985             2.896178
| 71> *
| 72>
| 73>                          ****END OF INPUT****
 Total Charge           Charge          ....    0
 Multiplicity           Mult            ....    1
 Number of Electrons    NEL             ....   36
Dispersion correction           -0.001076507
FINAL SINGLE POINT ENERGY      -231.459469428856
Dispersion correction           -0.000260017
FINAL SINGLE POINT ENERGY      -115.729898947769

CARTESIAN COORDINATES (ANGSTROEM)
---------------------------------
  C     -2.148013    2.129847    1.911966
  O     -0.703100    2.202816    2.039990
  H     -0.327344    2.930984    1.522731
  H     -2.414317    2.238284    0.914172
  H     -2.582117    1.155431    2.198879
  H     -2.594961    2.946416    2.554262
  C     -6.242248   -0.142471    2.374967
  O     -6.795535    0.871142    1.528577
  H     -6.086667    1.558375    1.634918
  H     -7.005123   -0.500635    3.005440
  H     -5.854555   -0.967482    1.802231
  H     -5.386707    0.238985    2.896178

 Multiplicity           Mult            ....    1
 Number of Electrons    NEL             ....   18
 Basis Dimension        Dim             ....  172

ORBITAL ENERGIES
----------------

  NO   OCC          E(Eh)            E(eV)
   0   2.0000     -19.232547      -523.3442
   1   2.0000     -10.305221      -280.4193
   2   2.0000      -1.129714       -30.7411
   3   2.0000      -0.795745       -21.6533
   4   2.0000      -0.608922       -16.5696
   5   2.0000      -0.541575       -14.7370
   6   2.0000      -0.524222       -14.2648
   7   2.0000      -0.446316       -12.1449
   8   2.0000      -0.372425       -10.1342
   9   0.0000       0.068899         1.8748
  10   0.0000       0.112901         3.0722
  11   0.0000       0.151196         4.1143
  12   0.0000       0.174006         4.7349
  13   0.0000       0.188403         5.1267

MULLIKEN ATOMIC CHARGES
-----------------------
   0 C :   -0.000461
   1 O :    0.000005
   2 H :   -0.000000
   3 H :   -0.000042
   4 H :    0.000324
   5 H :    0.000008
   6 C :   -0.176470
   7 O :   -0.467022
   8 H :    0.315096
   9 H :    0.120580
  10 H :    0.104573
  11 H :    0.103409
Sum of atomic charges:    0.0000000

LOEWDIN ATOMIC CHARGES
----------------------
   0 C :   -0.000519
   1 O :   -0.000009
   2 H :   -0.000002
   3 H :   -0.000055
   4 H :   -0.000569
   5 H :   -0.000028
   6 C :   -0.368792
   7 O :   -0.104382
   8 H :    0.191062
   9 H :    0.094947
  10 H :    0.095305
  11 H :    0.093040

  Mayer bond orders larger than 0.1
B(  6-C ,  7-O ) :   1.0097 B(  6-C ,  9-H ) :   0.9797 B(  6-C , 10-H ) :   0.9732
B(  6-C , 11-H ) :   0.9902 B(  7-O ,  8-H ) :   0.9037

Dispersion correction           -0.000221183
FINAL SINGLE POINT ENERGY      -115.729337172360

DIPOLE MOMENT
-------------
                                X             Y             Z
Electronic contribution:     -0.89294       1.17287      -1.04238
Nuclear contribution   :      1.55389      -1.15480       1.44763
                        -----------------------------------------
Total Dipole Moment    :      0.66095       0.01807       0.40526
                        -----------------------------------------
Magnitude (a.u.)       :      0.77551
Magnitude (Debye)      :      1.97118

Rotational constants in cm-1:     4.283119     0.836730     0.797032
Rotational constants in MHz : 128404.680809 25084.541915 23894.414633

                             ****ORCA TERMINATED NORMALLY****
TOTAL RUN TIME: 0 days 0 hours 0 minutes 59 seconds 176 msec
