                         Program Version 4.1.2  - RELEASE  -
|  1> #Run DFT-D3 single point of the dimer
|  2> ! wB97X-D3 def2-TZVP TIGHTSCF CHELPG PMODEL PAL8
|  3>
|  4> %base "10-103_DFT_AB"
|  5>
|  6> %scf
|  7> MaxIter 1000
|  8> end
|  9>
| 10> * xyz 0 1
| 11>   C                      -6.546840            0.074704             9.038280
| 12>   O                      -6.336000            1.429750             8.808845
| 13>   H                      -5.428613            1.515341             8.559811
| 14>   H                      -7.109638            -0.391232            8.240486
| 15>   H                      -5.589320            -0.496312            9.039589
| 16>   H                      -7.081118            -0.070553            9.995042
| 17>   C                      -8.097292            3.456859             6.308405
| 18>   O                      -7.734762            3.411450             4.914045
| 19>   H                      -8.319699            2.743882             4.430816
| 20>   H                      -8.341245            4.456401             6.724178
| 21>   H                      -8.969842            2.828563             6.564867
| 22>   H                      -7.279462            3.065835             6.868088
| 23> *
| 24>
| 25> #Run DFT-D3 single point of the molecule with dimer basis set
| 26> $new_job
| 27> %base "10-103_DFT_A"
| 28> ! wB97X-D3 def2-TZVP TIGHTSCF CHELPG PMODEL
| 29>
| 30> %scf
| 31> MaxIter 1000
| 32> end
| 33>
| 34> * xyz 0 1
| 35>   C                      -6.546840            0.074704             9.038280
| 36>   O                      -6.336000            1.429750             8.808845
| 37>   H                      -5.428613            1.515341             8.559811
| 38>   H                      -7.109638            -0.391232            8.240486
| 39>   H                      -5.589320            -0.496312            9.039589
| 40>   H                      -7.081118            -0.070553            9.995042
| 41>   C                    : -8.097292            3.456859             6.308405
| 42>   O                    : -7.734762            3.411450             4.914045
| 43>   H                    : -8.319699            2.743882             4.430816
| 44>   H                    : -8.341245            4.456401             6.724178
| 45>   H                    : -8.969842            2.828563             6.564867
| 46>   H                    : -7.279462            3.065835             6.868088
| 47> *
| 48>
| 49> #Run DFT-D3 single point of the particle with dimer basis set
| 50> $new_job
| 51> %base "10-103_DFT_B"
| 52> ! wB97X-D3 def2-TZVP TIGHTSCF CHELPG PMODEL
| 53>
| 54> %scf
| 55> MaxIter 1000
| 56> end
| 57>
| 58> * xyz 0 1
| 59>   C                    : -6.546840            0.074704             9.038280
| 60>   O                    : -6.336000            1.429750             8.808845
| 61>   H                    : -5.428613            1.515341             8.559811
| 62>   H                    : -7.109638            -0.391232            8.240486
| 63>   H                    : -5.589320            -0.496312            9.039589
| 64>   H                    : -7.081118            -0.070553            9.995042
| 65>   C                      -8.097292            3.456859             6.308405
| 66>   O                      -7.734762            3.411450             4.914045
| 67>   H                      -8.319699            2.743882             4.430816
| 68>   H                      -8.341245            4.456401             6.724178
| 69>   H                      -8.969842            2.828563             6.564867
| 70>   H                      -7.279462            3.065835             6.868088
| 71> *
| 72>
| 73>                          ****END OF INPUT****
 Total Charge           Charge          ....    0
 Multiplicity           Mult            ....    1
 Number of Electrons    NEL             ....   36
Dispersion correction           -0.001328806
FINAL SINGLE POINT ENERGY      -231.465849427924
Dispersion correction           -0.000234363
FINAL SINGLE POINT ENERGY      -115.734368636395

CARTESIAN COORDINATES (ANGSTROEM)
---------------------------------
  C     -6.546840    0.074704    9.038280
  O     -6.336000    1.429750    8.808845
  H     -5.428613    1.515341    8.559811
  H     -7.109638   -0.391232    8.240486
  H     -5.589320   -0.496312    9.039589
  H     -7.081118   -0.070553    9.995042
  C     -8.097292    3.456859    6.308405
  O     -7.734762    3.411450    4.914045
  H     -8.319699    2.743882    4.430816
  H     -8.341245    4.456401    6.724178
  H     -8.969842    2.828563    6.564867
  H     -7.279462    3.065835    6.868088

 Multiplicity           Mult            ....    1
 Number of Electrons    NEL             ....   18
 Basis Dimension        Dim             ....  172

ORBITAL ENERGIES
----------------

  NO   OCC          E(Eh)            E(eV)
   0   2.0000     -19.234745      -523.4040
   1   2.0000     -10.314825      -280.6807
   2   2.0000      -1.117811       -30.4172
   3   2.0000      -0.794505       -21.6196
   4   2.0000      -0.602050       -16.3826
   5   2.0000      -0.536308       -14.5937
   6   2.0000      -0.522035       -14.2053
   7   2.0000      -0.430721       -11.7205
   8   2.0000      -0.373479       -10.1629
   9   0.0000       0.083090         2.2610
  10   0.0000       0.108617         2.9556
  11   0.0000       0.145788         3.9671
  12   0.0000       0.164926         4.4879
  13   0.0000       0.191844         5.2204

MULLIKEN ATOMIC CHARGES
-----------------------
   0 C :   -0.000556
   1 O :   -0.000108
   2 H :   -0.000071
   3 H :    0.000008
   4 H :   -0.000003
   5 H :    0.000035
   6 C :   -0.172843
   7 O :   -0.485738
   8 H :    0.322089
   9 H :    0.109072
  10 H :    0.106712
  11 H :    0.121403
Sum of atomic charges:    0.0000000

LOEWDIN ATOMIC CHARGES
----------------------
   0 C :   -0.000646
   1 O :   -0.003560
   2 H :   -0.000904
   3 H :   -0.000072
   4 H :   -0.000010
   5 H :   -0.000011
   6 C :   -0.372410
   7 O :   -0.118972
   8 H :    0.196706
   9 H :    0.103959
  10 H :    0.099912
  11 H :    0.096008

  Mayer bond orders larger than 0.1
B(  6-C ,  7-O ) :   1.0068 B(  6-C ,  9-H ) :   0.9670 B(  6-C , 10-H ) :   0.9829
B(  6-C , 11-H ) :   0.9791 B(  7-O ,  8-H ) :   0.8908

Dispersion correction           -0.000275467
FINAL SINGLE POINT ENERGY      -115.729878092824

DIPOLE MOMENT
-------------
                                X             Y             Z
Electronic contribution:      0.57726       0.09427      -1.80071
Nuclear contribution   :     -1.10372      -0.51586       2.07317
                        -----------------------------------------
Total Dipole Moment    :     -0.52646      -0.42158       0.27246
                        -----------------------------------------
Magnitude (a.u.)       :      0.72741
Magnitude (Debye)      :      1.84893

Rotational constants in cm-1:     4.331999     0.794031     0.764376
Rotational constants in MHz : 129870.059094 23804.441719 22915.402490

                             ****ORCA TERMINATED NORMALLY****
TOTAL RUN TIME: 0 days 0 hours 1 minutes 2 seconds 557 msec
