                         Program Version 4.1.2  - RELEASE  -
|  1> #Run DFT-D3 single point of the dimer
|  2> ! wB97X-D3 def2-TZVP TIGHTSCF CHELPG PMODEL PAL8
|  3>
|  4> %base "6-15_DFT_AB"
|  5>
|  6> %scf
|  7> MaxIter 1000
|  8> end
|  9>
| 10> * xyz 0 1
| 11>   C                      10.093888            -10.923622           -4.878112
| 12>   O                      8.854168             -11.523886           -5.213173
| 13>   H                      8.103930             -11.097083           -4.746784
| 14>   H                      10.121338            -10.612979           -3.867320
| 15>   H                      11.027255            -11.597783           -4.983063
| 16>   H                      10.219092            -10.001707           -5.424086
| 17>   C                      7.449165             -7.833267            -3.684489
| 18>   O                      8.673282             -7.312019            -3.276682
| 19>   H                      8.453897             -6.609753            -2.633320
| 20>   H                      7.556963             -8.725010            -4.270334
| 21>   H                      6.723539             -8.104884            -2.806945
| 22>   H                      6.928298             -7.117201            -4.257824
| 23> *
| 24>
| 25> #Run DFT-D3 single point of the molecule with dimer basis set
| 26> $new_job
| 27> %base "6-15_DFT_A"
| 28> ! wB97X-D3 def2-TZVP TIGHTSCF CHELPG PMODEL
| 29>
| 30> %scf
| 31> MaxIter 1000
| 32> end
| 33>
| 34> * xyz 0 1
| 35>   C                      10.093888            -10.923622           -4.878112
| 36>   O                      8.854168             -11.523886           -5.213173
| 37>   H                      8.103930             -11.097083           -4.746784
| 38>   H                      10.121338            -10.612979           -3.867320
| 39>   H                      11.027255            -11.597783           -4.983063
| 40>   H                      10.219092            -10.001707           -5.424086
| 41>   C                    : 7.449165             -7.833267            -3.684489
| 42>   O                    : 8.673282             -7.312019            -3.276682
| 43>   H                    : 8.453897             -6.609753            -2.633320
| 44>   H                    : 7.556963             -8.725010            -4.270334
| 45>   H                    : 6.723539             -8.104884            -2.806945
| 46>   H                    : 6.928298             -7.117201            -4.257824
| 47> *
| 48>
| 49> #Run DFT-D3 single point of the particle with dimer basis set
| 50> $new_job
| 51> %base "6-15_DFT_B"
| 52> ! wB97X-D3 def2-TZVP TIGHTSCF CHELPG PMODEL
| 53>
| 54> %scf
| 55> MaxIter 1000
| 56> end
| 57>
| 58> * xyz 0 1
| 59>   C                    : 10.093888            -10.923622           -4.878112
| 60>   O                    : 8.854168             -11.523886           -5.213173
| 61>   H                    : 8.103930             -11.097083           -4.746784
| 62>   H                    : 10.121338            -10.612979           -3.867320
| 63>   H                    : 11.027255            -11.597783           -4.983063
| 64>   H                    : 10.219092            -10.001707           -5.424086
| 65>   C                      7.449165             -7.833267            -3.684489
| 66>   O                      8.673282             -7.312019            -3.276682
| 67>   H                      8.453897             -6.609753            -2.633320
| 68>   H                      7.556963             -8.725010            -4.270334
| 69>   H                      6.723539             -8.104884            -2.806945
| 70>   H                      6.928298             -7.117201            -4.257824
| 71> *
| 72>
| 73>                          ****END OF INPUT****
 Total Charge           Charge          ....    0
 Multiplicity           Mult            ....    1
 Number of Electrons    NEL             ....   36
Dispersion correction           -0.001555533
FINAL SINGLE POINT ENERGY      -231.461731977145
Dispersion correction           -0.000255355
FINAL SINGLE POINT ENERGY      -115.729197022632

CARTESIAN COORDINATES (ANGSTROEM)
---------------------------------
  C     10.093888  -10.923622   -4.878112
  O      8.854168  -11.523886   -5.213173
  H      8.103930  -11.097083   -4.746784
  H     10.121338  -10.612979   -3.867320
  H     11.027255  -11.597783   -4.983063
  H     10.219092  -10.001707   -5.424086
  C      7.449165   -7.833267   -3.684489
  O      8.673282   -7.312019   -3.276682
  H      8.453897   -6.609753   -2.633320
  H      7.556963   -8.725010   -4.270334
  H      6.723539   -8.104884   -2.806945
  H      6.928298   -7.117201   -4.257824

 Multiplicity           Mult            ....    1
 Number of Electrons    NEL             ....   18
 Basis Dimension        Dim             ....  172

ORBITAL ENERGIES
----------------

  NO   OCC          E(Eh)            E(eV)
   0   2.0000     -19.234571      -523.3993
   1   2.0000     -10.312117      -280.6070
   2   2.0000      -1.143286       -31.1104
   3   2.0000      -0.792686       -21.5701
   4   2.0000      -0.613472       -16.6934
   5   2.0000      -0.543457       -14.7882
   6   2.0000      -0.530631       -14.4392
   7   2.0000      -0.435484       -11.8501
   8   2.0000      -0.371392       -10.1061
   9   0.0000       0.091215         2.4821
  10   0.0000       0.116384         3.1670
  11   0.0000       0.150020         4.0823
  12   0.0000       0.176480         4.8023
  13   0.0000       0.196772         5.3544

MULLIKEN ATOMIC CHARGES
-----------------------
   0 C :    0.001623
   1 O :   -0.000441
   2 H :   -0.000110
   3 H :   -0.001007
   4 H :    0.000011
   5 H :   -0.000522
   6 C :   -0.178036
   7 O :   -0.460626
   8 H :    0.318243
   9 H :    0.123985
  10 H :    0.088606
  11 H :    0.108274
Sum of atomic charges:   -0.0000000

LOEWDIN ATOMIC CHARGES
----------------------
   0 C :   -0.001174
   1 O :   -0.000286
   2 H :   -0.003032
   3 H :   -0.000518
   4 H :   -0.000004
   5 H :   -0.000257
   6 C :   -0.407254
   7 O :   -0.063924
   8 H :    0.184480
   9 H :    0.103712
  10 H :    0.103519
  11 H :    0.084739

  Mayer bond orders larger than 0.1
B(  6-C ,  7-O ) :   1.0058 B(  6-C ,  9-H ) :   0.9717 B(  6-C , 10-H ) :   0.9771
B(  6-C , 11-H ) :   0.9790 B(  7-O ,  8-H ) :   0.8955

Dispersion correction           -0.000231438
FINAL SINGLE POINT ENERGY      -115.731445226578

DIPOLE MOMENT
-------------
                                X             Y             Z
Electronic contribution:      1.81237       0.58847       0.34677
Nuclear contribution   :     -2.39446      -0.33661      -0.13037
                        -----------------------------------------
Total Dipole Moment    :     -0.58209       0.25186       0.21640
                        -----------------------------------------
Magnitude (a.u.)       :      0.67015
Magnitude (Debye)      :      1.70337

Rotational constants in cm-1:     4.266838     0.851277     0.815067
Rotational constants in MHz : 127916.595211 25520.646167 24435.086634

                             ****ORCA TERMINATED NORMALLY****
TOTAL RUN TIME: 0 days 0 hours 1 minutes 0 seconds 440 msec
