                         Program Version 4.1.2  - RELEASE  -
|  1> #Run DFT-D3 single point of the dimer
|  2> ! wB97X-D3 def2-TZVP TIGHTSCF CHELPG PMODEL PAL8
|  3>
|  4> %base "4-27_DFT_AB"
|  5>
|  6> %scf
|  7> MaxIter 1000
|  8> end
|  9>
| 10> * xyz 0 1
| 11>   C                      1.278964             -10.654822           2.337766
| 12>   O                      1.975469             -10.763566           3.561013
| 13>   H                      2.763265             -11.256909           3.348373
| 14>   H                      0.900062             -11.560758           2.008515
| 15>   H                      0.551293             -9.905268            2.334664
| 16>   H                      2.032881             -10.389157           1.510708
| 17>   C                      -0.432062            -6.429916            1.409516
| 18>   O                      -0.240342            -6.527829            0.008643
| 19>   H                      -0.516940            -7.393926            -0.333808
| 20>   H                      -1.374877            -6.853542            1.577337
| 21>   H                      0.302827             -6.927825            1.949934
| 22>   H                      -0.419316            -5.387981            1.744587
| 23> *
| 24>
| 25> #Run DFT-D3 single point of the molecule with dimer basis set
| 26> $new_job
| 27> %base "4-27_DFT_A"
| 28> ! wB97X-D3 def2-TZVP TIGHTSCF CHELPG PMODEL
| 29>
| 30> %scf
| 31> MaxIter 1000
| 32> end
| 33>
| 34> * xyz 0 1
| 35>   C                      1.278964             -10.654822           2.337766
| 36>   O                      1.975469             -10.763566           3.561013
| 37>   H                      2.763265             -11.256909           3.348373
| 38>   H                      0.900062             -11.560758           2.008515
| 39>   H                      0.551293             -9.905268            2.334664
| 40>   H                      2.032881             -10.389157           1.510708
| 41>   C                    : -0.432062            -6.429916            1.409516
| 42>   O                    : -0.240342            -6.527829            0.008643
| 43>   H                    : -0.516940            -7.393926            -0.333808
| 44>   H                    : -1.374877            -6.853542            1.577337
| 45>   H                    : 0.302827             -6.927825            1.949934
| 46>   H                    : -0.419316            -5.387981            1.744587
| 47> *
| 48>
| 49> #Run DFT-D3 single point of the particle with dimer basis set
| 50> $new_job
| 51> %base "4-27_DFT_B"
| 52> ! wB97X-D3 def2-TZVP TIGHTSCF CHELPG PMODEL
| 53>
| 54> %scf
| 55> MaxIter 1000
| 56> end
| 57>
| 58> * xyz 0 1
| 59>   C                    : 1.278964             -10.654822           2.337766
| 60>   O                    : 1.975469             -10.763566           3.561013
| 61>   H                    : 2.763265             -11.256909           3.348373
| 62>   H                    : 0.900062             -11.560758           2.008515
| 63>   H                    : 0.551293             -9.905268            2.334664
| 64>   H                    : 2.032881             -10.389157           1.510708
| 65>   C                      -0.432062            -6.429916            1.409516
| 66>   O                      -0.240342            -6.527829            0.008643
| 67>   H                      -0.516940            -7.393926            -0.333808
| 68>   H                      -1.374877            -6.853542            1.577337
| 69>   H                      0.302827             -6.927825            1.949934
| 70>   H                      -0.419316            -5.387981            1.744587
| 71> *
| 72>
| 73>                          ****END OF INPUT****
 Total Charge           Charge          ....    0
 Multiplicity           Mult            ....    1
 Number of Electrons    NEL             ....   36
Dispersion correction           -0.000991936
FINAL SINGLE POINT ENERGY      -231.460238914038
Dispersion correction           -0.000217317
FINAL SINGLE POINT ENERGY      -115.729177443754

CARTESIAN COORDINATES (ANGSTROEM)
---------------------------------
  C      1.278964  -10.654822    2.337766
  O      1.975469  -10.763566    3.561013
  H      2.763265  -11.256909    3.348373
  H      0.900062  -11.560758    2.008515
  H      0.551293   -9.905268    2.334664
  H      2.032881  -10.389157    1.510708
  C     -0.432062   -6.429916    1.409516
  O     -0.240342   -6.527829    0.008643
  H     -0.516940   -7.393926   -0.333808
  H     -1.374877   -6.853542    1.577337
  H      0.302827   -6.927825    1.949934
  H     -0.419316   -5.387981    1.744587

 Multiplicity           Mult            ....    1
 Number of Electrons    NEL             ....   18
 Basis Dimension        Dim             ....  172

ORBITAL ENERGIES
----------------

  NO   OCC          E(Eh)            E(eV)
   0   2.0000     -19.224271      -523.1190
   1   2.0000     -10.301773      -280.3255
   2   2.0000      -1.128175       -30.6992
   3   2.0000      -0.802149       -21.8276
   4   2.0000      -0.607992       -16.5443
   5   2.0000      -0.553846       -15.0709
   6   2.0000      -0.530026       -14.4227
   7   2.0000      -0.424942       -11.5633
   8   2.0000      -0.371550       -10.1104
   9   0.0000       0.080140         2.1807
  10   0.0000       0.114989         3.1290
  11   0.0000       0.153127         4.1668
  12   0.0000       0.172096         4.6830
  13   0.0000       0.189397         5.1537

MULLIKEN ATOMIC CHARGES
-----------------------
   0 C :   -0.000265
   1 O :    0.000031
   2 H :    0.000004
   3 H :    0.000007
   4 H :    0.000428
   5 H :   -0.000013
   6 C :   -0.145140
   7 O :   -0.494958
   8 H :    0.316966
   9 H :    0.101887
  10 H :    0.103357
  11 H :    0.117695
Sum of atomic charges:   -0.0000000

LOEWDIN ATOMIC CHARGES
----------------------
   0 C :   -0.000454
   1 O :   -0.000005
   2 H :   -0.000000
   3 H :   -0.000003
   4 H :   -0.000610
   5 H :   -0.000026
   6 C :   -0.363182
   7 O :   -0.091419
   8 H :    0.173096
   9 H :    0.089387
  10 H :    0.082714
  11 H :    0.110502

  Mayer bond orders larger than 0.1
B(  6-C ,  7-O ) :   0.9921 B(  6-C ,  9-H ) :   0.9959 B(  6-C , 10-H ) :   0.9734
B(  6-C , 11-H ) :   0.9726 B(  7-O ,  8-H ) :   0.8945

Dispersion correction           -0.000224125
FINAL SINGLE POINT ENERGY      -115.730615694323

DIPOLE MOMENT
-------------
                                X             Y             Z
Electronic contribution:      0.31984      -0.01086      -1.66219
Nuclear contribution   :     -0.58737      -0.50873       2.04078
                        -----------------------------------------
Total Dipole Moment    :     -0.26753      -0.51959       0.37859
                        -----------------------------------------
Magnitude (a.u.)       :      0.69633
Magnitude (Debye)      :      1.76993

Rotational constants in cm-1:     4.518124     0.835495     0.803533
Rotational constants in MHz : 135449.937314 25047.514097 24089.318693

                             ****ORCA TERMINATED NORMALLY****
TOTAL RUN TIME: 0 days 0 hours 1 minutes 34 seconds 265 msec
