                         Program Version 4.1.2  - RELEASE  -
|  1> #Run DFT-D3 single point of the dimer
|  2> ! wB97X-D3 def2-TZVP TIGHTSCF CHELPG PMODEL PAL8
|  3>
|  4> %base "10-126_DFT_AB"
|  5>
|  6> %scf
|  7> MaxIter 1000
|  8> end
|  9>
| 10> * xyz 0 1
| 11>   C                      3.098485             -10.254710           3.154652
| 12>   O                      1.929443             -10.645468           2.413402
| 13>   H                      1.326363             -9.867213            2.392018
| 14>   H                      3.838667             -9.664771            2.574647
| 15>   H                      2.839848             -9.539749            3.990909
| 16>   H                      3.496632             -11.128306           3.655965
| 17>   C                      4.927070             -7.136852            4.687210
| 18>   O                      3.481489             -7.286531            4.707330
| 19>   H                      3.231415             -7.831343            5.483614
| 20>   H                      5.359156             -6.790389            3.759214
| 21>   H                      5.171913             -6.330077            5.394438
| 22>   H                      5.407996             -8.090754            4.960268
| 23> *
| 24>
| 25> #Run DFT-D3 single point of the molecule with dimer basis set
| 26> $new_job
| 27> %base "10-126_DFT_A"
| 28> ! wB97X-D3 def2-TZVP TIGHTSCF CHELPG PMODEL
| 29>
| 30> %scf
| 31> MaxIter 1000
| 32> end
| 33>
| 34> * xyz 0 1
| 35>   C                      3.098485             -10.254710           3.154652
| 36>   O                      1.929443             -10.645468           2.413402
| 37>   H                      1.326363             -9.867213            2.392018
| 38>   H                      3.838667             -9.664771            2.574647
| 39>   H                      2.839848             -9.539749            3.990909
| 40>   H                      3.496632             -11.128306           3.655965
| 41>   C                    : 4.927070             -7.136852            4.687210
| 42>   O                    : 3.481489             -7.286531            4.707330
| 43>   H                    : 3.231415             -7.831343            5.483614
| 44>   H                    : 5.359156             -6.790389            3.759214
| 45>   H                    : 5.171913             -6.330077            5.394438
| 46>   H                    : 5.407996             -8.090754            4.960268
| 47> *
| 48>
| 49> #Run DFT-D3 single point of the particle with dimer basis set
| 50> $new_job
| 51> %base "10-126_DFT_B"
| 52> ! wB97X-D3 def2-TZVP TIGHTSCF CHELPG PMODEL
| 53>
| 54> %scf
| 55> MaxIter 1000
| 56> end
| 57>
| 58> * xyz 0 1
| 59>   C                    : 3.098485             -10.254710           3.154652
| 60>   O                    : 1.929443             -10.645468           2.413402
| 61>   H                    : 1.326363             -9.867213            2.392018
| 62>   H                    : 3.838667             -9.664771            2.574647
| 63>   H                    : 2.839848             -9.539749            3.990909
| 64>   H                    : 3.496632             -11.128306           3.655965
| 65>   C                      4.927070             -7.136852            4.687210
| 66>   O                      3.481489             -7.286531            4.707330
| 67>   H                      3.231415             -7.831343            5.483614
| 68>   H                      5.359156             -6.790389            3.759214
| 69>   H                      5.171913             -6.330077            5.394438
| 70>   H                      5.407996             -8.090754            4.960268
| 71> *
| 72>
| 73>                          ****END OF INPUT****
 Total Charge           Charge          ....    0
 Multiplicity           Mult            ....    1
 Number of Electrons    NEL             ....   36
Dispersion correction           -0.001849863
FINAL SINGLE POINT ENERGY      -231.465812058643
Dispersion correction           -0.000264083
FINAL SINGLE POINT ENERGY      -115.732617887308

CARTESIAN COORDINATES (ANGSTROEM)
---------------------------------
  C      3.098485  -10.254710    3.154652
  O      1.929443  -10.645468    2.413402
  H      1.326363   -9.867213    2.392018
  H      3.838667   -9.664771    2.574647
  H      2.839848   -9.539749    3.990909
  H      3.496632  -11.128306    3.655965
  C      4.927070   -7.136852    4.687210
  O      3.481489   -7.286531    4.707330
  H      3.231415   -7.831343    5.483614
  H      5.359156   -6.790389    3.759214
  H      5.171913   -6.330077    5.394438
  H      5.407996   -8.090754    4.960268

 Multiplicity           Mult            ....    1
 Number of Electrons    NEL             ....   18
 Basis Dimension        Dim             ....  172

ORBITAL ENERGIES
----------------

  NO   OCC          E(Eh)            E(eV)
   0   2.0000     -19.231652      -523.3199
   1   2.0000     -10.317799      -280.7616
   2   2.0000      -1.120203       -30.4823
   3   2.0000      -0.796598       -21.6765
   4   2.0000      -0.598178       -16.2772
   5   2.0000      -0.539735       -14.6869
   6   2.0000      -0.530042       -14.4232
   7   2.0000      -0.430679       -11.7194
   8   2.0000      -0.372965       -10.1489
   9   0.0000       0.087645         2.3850
  10   0.0000       0.128414         3.4943
  11   0.0000       0.144673         3.9368
  12   0.0000       0.173695         4.7265
  13   0.0000       0.192875         5.2484

MULLIKEN ATOMIC CHARGES
-----------------------
   0 C :    0.017678
   1 O :   -0.000427
   2 H :   -0.000432
   3 H :   -0.001920
   4 H :   -0.030103
   5 H :   -0.000805
   6 C :   -0.175723
   7 O :   -0.476188
   8 H :    0.320344
   9 H :    0.123599
  10 H :    0.113320
  11 H :    0.110656
Sum of atomic charges:   -0.0000000

LOEWDIN ATOMIC CHARGES
----------------------
   0 C :   -0.008432
   1 O :   -0.000021
   2 H :   -0.000121
   3 H :   -0.001177
   4 H :   -0.016190
   5 H :   -0.000118
   6 C :   -0.358238
   7 O :   -0.100060
   8 H :    0.180322
   9 H :    0.104244
  10 H :    0.100259
  11 H :    0.099533

  Mayer bond orders larger than 0.1
B(  6-C ,  7-O ) :   0.9843 B(  6-C ,  9-H ) :   0.9721 B(  6-C , 10-H ) :   0.9798
B(  6-C , 11-H ) :   0.9788 B(  7-O ,  8-H ) :   0.8923

Dispersion correction           -0.000256482
FINAL SINGLE POINT ENERGY      -115.732176364151

DIPOLE MOMENT
-------------
                                X             Y             Z
Electronic contribution:     -1.78526      -0.12930      -0.18823
Nuclear contribution   :      2.25718      -0.12650       0.65809
                        -----------------------------------------
Total Dipole Moment    :      0.47192      -0.25580       0.46985
                        -----------------------------------------
Magnitude (a.u.)       :      0.71338
Magnitude (Debye)      :      1.81326

Rotational constants in cm-1:     4.293568     0.790306     0.764387
Rotational constants in MHz : 128717.925138 23692.766563 22915.731588

                             ****ORCA TERMINATED NORMALLY****
TOTAL RUN TIME: 0 days 0 hours 1 minutes 1 seconds 408 msec
