                         Program Version 4.1.2  - RELEASE  -
|  1> #Run DFT-D3 single point of the dimer
|  2> ! wB97X-D3 def2-TZVP TIGHTSCF CHELPG PMODEL PAL8
|  3>
|  4> %base "15-115_DFT_AB"
|  5>
|  6> %scf
|  7> MaxIter 1000
|  8> end
|  9>
| 10> * xyz 0 1
| 11>   C                      -8.741298            2.011350             -3.240860
| 12>   O                      -9.621524            0.943779             -3.563059
| 13>   H                      -9.309505            0.156833             -3.162644
| 14>   H                      -9.085731            2.993607             -3.654103
| 15>   H                      -8.600028            2.141304             -2.154189
| 16>   H                      -7.868140            1.741703             -3.848083
| 17>   C                      -5.584144            4.216774             -2.974492
| 18>   O                      -5.488972            2.817848             -2.786760
| 19>   H                      -4.762711            2.523080             -2.276914
| 20>   H                      -4.592497            4.686853             -2.957562
| 21>   H                      -6.122841            4.609606             -3.841734
| 22>   H                      -6.019252            4.673570             -2.114456
| 23> *
| 24>
| 25> #Run DFT-D3 single point of the molecule with dimer basis set
| 26> $new_job
| 27> %base "15-115_DFT_A"
| 28> ! wB97X-D3 def2-TZVP TIGHTSCF CHELPG PMODEL
| 29>
| 30> %scf
| 31> MaxIter 1000
| 32> end
| 33>
| 34> * xyz 0 1
| 35>   C                      -8.741298            2.011350             -3.240860
| 36>   O                      -9.621524            0.943779             -3.563059
| 37>   H                      -9.309505            0.156833             -3.162644
| 38>   H                      -9.085731            2.993607             -3.654103
| 39>   H                      -8.600028            2.141304             -2.154189
| 40>   H                      -7.868140            1.741703             -3.848083
| 41>   C                    : -5.584144            4.216774             -2.974492
| 42>   O                    : -5.488972            2.817848             -2.786760
| 43>   H                    : -4.762711            2.523080             -2.276914
| 44>   H                    : -4.592497            4.686853             -2.957562
| 45>   H                    : -6.122841            4.609606             -3.841734
| 46>   H                    : -6.019252            4.673570             -2.114456
| 47> *
| 48>
| 49> #Run DFT-D3 single point of the particle with dimer basis set
| 50> $new_job
| 51> %base "15-115_DFT_B"
| 52> ! wB97X-D3 def2-TZVP TIGHTSCF CHELPG PMODEL
| 53>
| 54> %scf
| 55> MaxIter 1000
| 56> end
| 57>
| 58> * xyz 0 1
| 59>   C                    : -8.741298            2.011350             -3.240860
| 60>   O                    : -9.621524            0.943779             -3.563059
| 61>   H                    : -9.309505            0.156833             -3.162644
| 62>   H                    : -9.085731            2.993607             -3.654103
| 63>   H                    : -8.600028            2.141304             -2.154189
| 64>   H                    : -7.868140            1.741703             -3.848083
| 65>   C                      -5.584144            4.216774             -2.974492
| 66>   O                      -5.488972            2.817848             -2.786760
| 67>   H                      -4.762711            2.523080             -2.276914
| 68>   H                      -4.592497            4.686853             -2.957562
| 69>   H                      -6.122841            4.609606             -3.841734
| 70>   H                      -6.019252            4.673570             -2.114456
| 71> *
| 72>
| 73>                          ****END OF INPUT****
 Total Charge           Charge          ....    0
 Multiplicity           Mult            ....    1
 Number of Electrons    NEL             ....   36
Dispersion correction           -0.001730267
FINAL SINGLE POINT ENERGY      -231.459503406664
Dispersion correction           -0.000231632
FINAL SINGLE POINT ENERGY      -115.729742833417

CARTESIAN COORDINATES (ANGSTROEM)
---------------------------------
  C     -8.741298    2.011350   -3.240860
  O     -9.621524    0.943779   -3.563059
  H     -9.309505    0.156833   -3.162644
  H     -9.085731    2.993607   -3.654103
  H     -8.600028    2.141304   -2.154189
  H     -7.868140    1.741703   -3.848083
  C     -5.584144    4.216774   -2.974492
  O     -5.488972    2.817848   -2.786760
  H     -4.762711    2.523080   -2.276914
  H     -4.592497    4.686853   -2.957562
  H     -6.122841    4.609606   -3.841734
  H     -6.019252    4.673570   -2.114456

 Multiplicity           Mult            ....    1
 Number of Electrons    NEL             ....   18
 Basis Dimension        Dim             ....  172

ORBITAL ENERGIES
----------------

  NO   OCC          E(Eh)            E(eV)
   0   2.0000     -19.226168      -523.1706
   1   2.0000     -10.312403      -280.6148
   2   2.0000      -1.136224       -30.9182
   3   2.0000      -0.805374       -21.9154
   4   2.0000      -0.620874       -16.8948
   5   2.0000      -0.539073       -14.6689
   6   2.0000      -0.531298       -14.4573
   7   2.0000      -0.425668       -11.5830
   8   2.0000      -0.371099       -10.0981
   9   0.0000       0.095989         2.6120
  10   0.0000       0.124856         3.3975
  11   0.0000       0.146010         3.9731
  12   0.0000       0.177405         4.8274
  13   0.0000       0.196141         5.3373

MULLIKEN ATOMIC CHARGES
-----------------------
   0 C :    0.006097
   1 O :    0.000037
   2 H :   -0.000038
   3 H :   -0.001068
   4 H :   -0.003581
   5 H :   -0.005400
   6 C :   -0.165933
   7 O :   -0.484989
   8 H :    0.316244
   9 H :    0.103604
  10 H :    0.127445
  11 H :    0.107582
Sum of atomic charges:   -0.0000000

LOEWDIN ATOMIC CHARGES
----------------------
   0 C :   -0.007567
   1 O :   -0.000037
   2 H :   -0.000004
   3 H :   -0.000247
   4 H :   -0.001643
   5 H :   -0.004945
   6 C :   -0.379986
   7 O :   -0.057197
   8 H :    0.152388
   9 H :    0.098750
  10 H :    0.109549
  11 H :    0.090939

  Mayer bond orders larger than 0.1
B(  6-C ,  7-O ) :   0.9872 B(  6-C ,  9-H ) :   0.9800 B(  6-C , 10-H ) :   0.9700
B(  6-C , 11-H ) :   0.9801 B(  7-O ,  8-H ) :   0.8958

Dispersion correction           -0.000256573
FINAL SINGLE POINT ENERGY      -115.728440534533

DIPOLE MOMENT
-------------
                                X             Y             Z
Electronic contribution:     -0.03973      -1.89334       0.04675
Nuclear contribution   :      0.51029       2.30437       0.22937
                        -----------------------------------------
Total Dipole Moment    :      0.47056       0.41104       0.27612
                        -----------------------------------------
Magnitude (a.u.)       :      0.68310
Magnitude (Debye)      :      1.73630

Rotational constants in cm-1:     4.660790     0.816429     0.784446
Rotational constants in MHz : 139726.967151 24475.929819 23517.085270

                             ****ORCA TERMINATED NORMALLY****
TOTAL RUN TIME: 0 days 0 hours 0 minutes 59 seconds 123 msec
