                         Program Version 4.1.2  - RELEASE  -
|  1> #Run DFT-D3 single point of the dimer
|  2> ! wB97X-D3 def2-TZVP TIGHTSCF CHELPG PMODEL PAL8
|  3>
|  4> %base "1-24_DFT_AB"
|  5>
|  6> %scf
|  7> MaxIter 1000
|  8> end
|  9>
| 10> * xyz 0 1
| 11>   C                      -2.881200            5.269052             1.066537
| 12>   O                      -2.445104            4.075524             0.341486
| 13>   H                      -2.756895            4.205874             -0.534556
| 14>   H                      -3.832270            5.165989             1.402556
| 15>   H                      -2.191036            5.618454             1.900053
| 16>   H                      -2.957396            6.094008             0.292697
| 17>   C                      -4.456996            0.447814             1.796925
| 18>   O                      -5.569938            -0.318385            1.474427
| 19>   H                      -6.363090            0.011979             1.965334
| 20>   H                      -3.835423            -0.019642            2.556356
| 21>   H                      -3.690699            0.690469             1.045345
| 22>   H                      -4.801970            1.393680             2.209254
| 23> *
| 24>
| 25> #Run DFT-D3 single point of the molecule with dimer basis set
| 26> $new_job
| 27> %base "1-24_DFT_A"
| 28> ! wB97X-D3 def2-TZVP TIGHTSCF CHELPG PMODEL
| 29>
| 30> %scf
| 31> MaxIter 1000
| 32> end
| 33>
| 34> * xyz 0 1
| 35>   C                      -2.881200            5.269052             1.066537
| 36>   O                      -2.445104            4.075524             0.341486
| 37>   H                      -2.756895            4.205874             -0.534556
| 38>   H                      -3.832270            5.165989             1.402556
| 39>   H                      -2.191036            5.618454             1.900053
| 40>   H                      -2.957396            6.094008             0.292697
| 41>   C                    : -4.456996            0.447814             1.796925
| 42>   O                    : -5.569938            -0.318385            1.474427
| 43>   H                    : -6.363090            0.011979             1.965334
| 44>   H                    : -3.835423            -0.019642            2.556356
| 45>   H                    : -3.690699            0.690469             1.045345
| 46>   H                    : -4.801970            1.393680             2.209254
| 47> *
| 48>
| 49> #Run DFT-D3 single point of the particle with dimer basis set
| 50> $new_job
| 51> %base "1-24_DFT_B"
| 52> ! wB97X-D3 def2-TZVP TIGHTSCF CHELPG PMODEL
| 53>
| 54> %scf
| 55> MaxIter 1000
| 56> end
| 57>
| 58> * xyz 0 1
| 59>   C                    : -2.881200            5.269052             1.066537
| 60>   O                    : -2.445104            4.075524             0.341486
| 61>   H                    : -2.756895            4.205874             -0.534556
| 62>   H                    : -3.832270            5.165989             1.402556
| 63>   H                    : -2.191036            5.618454             1.900053
| 64>   H                    : -2.957396            6.094008             0.292697
| 65>   C                      -4.456996            0.447814             1.796925
| 66>   O                      -5.569938            -0.318385            1.474427
| 67>   H                      -6.363090            0.011979             1.965334
| 68>   H                      -3.835423            -0.019642            2.556356
| 69>   H                      -3.690699            0.690469             1.045345
| 70>   H                      -4.801970            1.393680             2.209254
| 71> *
| 72>
| 73>                          ****END OF INPUT****
 Total Charge           Charge          ....    0
 Multiplicity           Mult            ....    1
 Number of Electrons    NEL             ....   36
Dispersion correction           -0.000892373
FINAL SINGLE POINT ENERGY      -231.453843342800
Dispersion correction           -0.000244874
FINAL SINGLE POINT ENERGY      -115.724696535331

CARTESIAN COORDINATES (ANGSTROEM)
---------------------------------
  C     -2.881200    5.269052    1.066537
  O     -2.445104    4.075524    0.341486
  H     -2.756895    4.205874   -0.534556
  H     -3.832270    5.165989    1.402556
  H     -2.191036    5.618454    1.900053
  H     -2.957396    6.094008    0.292697
  C     -4.456996    0.447814    1.796925
  O     -5.569938   -0.318385    1.474427
  H     -6.363090    0.011979    1.965334
  H     -3.835423   -0.019642    2.556356
  H     -3.690699    0.690469    1.045345
  H     -4.801970    1.393680    2.209254

 Multiplicity           Mult            ....    1
 Number of Electrons    NEL             ....   18
 Basis Dimension        Dim             ....  172

ORBITAL ENERGIES
----------------

  NO   OCC          E(Eh)            E(eV)
   0   2.0000     -19.233743      -523.3768
   1   2.0000     -10.310907      -280.5740
   2   2.0000      -1.138676       -30.9849
   3   2.0000      -0.795116       -21.6362
   4   2.0000      -0.615736       -16.7550
   5   2.0000      -0.544613       -14.8197
   6   2.0000      -0.532144       -14.4804
   7   2.0000      -0.424675       -11.5560
   8   2.0000      -0.369927       -10.0662
   9   0.0000       0.082072         2.2333
  10   0.0000       0.108861         2.9623
  11   0.0000       0.141902         3.8613
  12   0.0000       0.166060         4.5187
  13   0.0000       0.190137         5.1739

MULLIKEN ATOMIC CHARGES
-----------------------
   0 C :   -0.000103
   1 O :    0.000013
   2 H :   -0.000048
   3 H :   -0.000114
   4 H :    0.000004
   5 H :   -0.000004
   6 C :   -0.159604
   7 O :   -0.476801
   8 H :    0.326984
   9 H :    0.098623
  10 H :    0.114700
  11 H :    0.096350
Sum of atomic charges:    0.0000000

LOEWDIN ATOMIC CHARGES
----------------------
   0 C :   -0.000165
   1 O :   -0.000198
   2 H :   -0.000076
   3 H :   -0.000078
   4 H :   -0.000001
   5 H :   -0.000002
   6 C :   -0.411811
   7 O :   -0.072923
   8 H :    0.192675
   9 H :    0.092735
  10 H :    0.105267
  11 H :    0.094577

  Mayer bond orders larger than 0.1
B(  6-C ,  7-O ) :   1.0112 B(  6-C ,  9-H ) :   0.9756 B(  6-C , 10-H ) :   0.9700
B(  6-C , 11-H ) :   0.9944 B(  7-O ,  8-H ) :   0.8880

Dispersion correction           -0.000247700
FINAL SINGLE POINT ENERGY      -115.728282326605

DIPOLE MOMENT
-------------
                                X             Y             Z
Electronic contribution:     -1.45344      -1.14365      -0.64186
Nuclear contribution   :      1.36964       1.66380       1.08434
                        -----------------------------------------
Total Dipole Moment    :     -0.08380       0.52016       0.44248
                        -----------------------------------------
Magnitude (a.u.)       :      0.68803
Magnitude (Debye)      :      1.74882

Rotational constants in cm-1:     4.495412     0.841639     0.805651
Rotational constants in MHz : 134769.060653 25231.698170 24152.798914

                             ****ORCA TERMINATED NORMALLY****
TOTAL RUN TIME: 0 days 0 hours 4 minutes 20 seconds 824 msec
