                         Program Version 4.1.2  - RELEASE  -
|  1> #Run DFT-D3 single point of the dimer
|  2> ! wB97X-D3 def2-TZVP TIGHTSCF CHELPG PMODEL PAL8
|  3>
|  4> %base "15-216_DFT_AB"
|  5>
|  6> %scf
|  7> MaxIter 1000
|  8> end
|  9>
| 10> * xyz 0 1
| 11>   C                      -5.228021            -5.201579            -7.289716
| 12>   O                      -5.730064            -6.451486            -7.748698
| 13>   H                      -5.272211            -6.676350            -8.575378
| 14>   H                      -4.370147            -5.383258            -6.565154
| 15>   H                      -4.907543            -4.739476            -8.134472
| 16>   H                      -5.945658            -4.573453            -6.762848
| 17>   C                      -3.220725            -7.157487            -10.856267
| 18>   O                      -4.326436            -7.500071            -10.036397
| 19>   H                      -4.470185            -8.451293            -9.965731
| 20>   H                      -3.116875            -6.084533            -10.788228
| 21>   H                      -2.292855            -7.635337            -10.576674
| 22>   H                      -3.439867            -7.422917            -11.923425
| 23> *
| 24>
| 25> #Run DFT-D3 single point of the molecule with dimer basis set
| 26> $new_job
| 27> %base "15-216_DFT_A"
| 28> ! wB97X-D3 def2-TZVP TIGHTSCF CHELPG PMODEL
| 29>
| 30> %scf
| 31> MaxIter 1000
| 32> end
| 33>
| 34> * xyz 0 1
| 35>   C                      -5.228021            -5.201579            -7.289716
| 36>   O                      -5.730064            -6.451486            -7.748698
| 37>   H                      -5.272211            -6.676350            -8.575378
| 38>   H                      -4.370147            -5.383258            -6.565154
| 39>   H                      -4.907543            -4.739476            -8.134472
| 40>   H                      -5.945658            -4.573453            -6.762848
| 41>   C                    : -3.220725            -7.157487            -10.856267
| 42>   O                    : -4.326436            -7.500071            -10.036397
| 43>   H                    : -4.470185            -8.451293            -9.965731
| 44>   H                    : -3.116875            -6.084533            -10.788228
| 45>   H                    : -2.292855            -7.635337            -10.576674
| 46>   H                    : -3.439867            -7.422917            -11.923425
| 47> *
| 48>
| 49> #Run DFT-D3 single point of the particle with dimer basis set
| 50> $new_job
| 51> %base "15-216_DFT_B"
| 52> ! wB97X-D3 def2-TZVP TIGHTSCF CHELPG PMODEL
| 53>
| 54> %scf
| 55> MaxIter 1000
| 56> end
| 57>
| 58> * xyz 0 1
| 59>   C                    : -5.228021            -5.201579            -7.289716
| 60>   O                    : -5.730064            -6.451486            -7.748698
| 61>   H                    : -5.272211            -6.676350            -8.575378
| 62>   H                    : -4.370147            -5.383258            -6.565154
| 63>   H                    : -4.907543            -4.739476            -8.134472
| 64>   H                    : -5.945658            -4.573453            -6.762848
| 65>   C                      -3.220725            -7.157487            -10.856267
| 66>   O                      -4.326436            -7.500071            -10.036397
| 67>   H                      -4.470185            -8.451293            -9.965731
| 68>   H                      -3.116875            -6.084533            -10.788228
| 69>   H                      -2.292855            -7.635337            -10.576674
| 70>   H                      -3.439867            -7.422917            -11.923425
| 71> *
| 72>
| 73>                          ****END OF INPUT****
 Total Charge           Charge          ....    0
 Multiplicity           Mult            ....    1
 Number of Electrons    NEL             ....   36
Dispersion correction           -0.001628773
FINAL SINGLE POINT ENERGY      -231.472759035021
Dispersion correction           -0.000233744
FINAL SINGLE POINT ENERGY      -115.727393522223

CARTESIAN COORDINATES (ANGSTROEM)
---------------------------------
  C     -5.228021   -5.201579   -7.289716
  O     -5.730064   -6.451486   -7.748698
  H     -5.272211   -6.676350   -8.575378
  H     -4.370147   -5.383258   -6.565154
  H     -4.907543   -4.739476   -8.134472
  H     -5.945658   -4.573453   -6.762848
  C     -3.220725   -7.157487  -10.856267
  O     -4.326436   -7.500071  -10.036397
  H     -4.470185   -8.451293   -9.965731
  H     -3.116875   -6.084533  -10.788228
  H     -2.292855   -7.635337  -10.576674
  H     -3.439867   -7.422917  -11.923425

 Multiplicity           Mult            ....    1
 Number of Electrons    NEL             ....   18
 Basis Dimension        Dim             ....  172

ORBITAL ENERGIES
----------------

  NO   OCC          E(Eh)            E(eV)
   0   2.0000     -19.228623      -523.2374
   1   2.0000     -10.314188      -280.6633
   2   2.0000      -1.130498       -30.7624
   3   2.0000      -0.797795       -21.7091
   4   2.0000      -0.611425       -16.6377
   5   2.0000      -0.537730       -14.6324
   6   2.0000      -0.528236       -14.3740
   7   2.0000      -0.430891       -11.7251
   8   2.0000      -0.372442       -10.1347
   9   0.0000       0.100520         2.7353
  10   0.0000       0.124020         3.3748
  11   0.0000       0.152092         4.1386
  12   0.0000       0.188120         5.1190
  13   0.0000       0.202370         5.5068

MULLIKEN ATOMIC CHARGES
-----------------------
   0 C :    0.000521
   1 O :   -0.000546
   2 H :   -0.008455
   3 H :   -0.000126
   4 H :   -0.001141
   5 H :   -0.000174
   6 C :   -0.142795
   7 O :   -0.485058
   8 H :    0.314644
   9 H :    0.125901
  10 H :    0.101417
  11 H :    0.095814
Sum of atomic charges:   -0.0000000

LOEWDIN ATOMIC CHARGES
----------------------
   0 C :   -0.001987
   1 O :   -0.005585
   2 H :   -0.045166
   3 H :   -0.000077
   4 H :   -0.000336
   5 H :   -0.000041
   6 C :   -0.374562
   7 O :   -0.040414
   8 H :    0.168859
   9 H :    0.108194
  10 H :    0.091089
  11 H :    0.100027

  Mayer bond orders larger than 0.1
B(  6-C ,  7-O ) :   0.9885 B(  6-C ,  9-H ) :   0.9767 B(  6-C , 10-H ) :   0.9702
B(  6-C , 11-H ) :   0.9761 B(  7-O ,  8-H ) :   0.8937

Dispersion correction           -0.000255323
FINAL SINGLE POINT ENERGY      -115.736572359775

DIPOLE MOMENT
-------------
                                X             Y             Z
Electronic contribution:     -1.33489      -0.31921       1.10630
Nuclear contribution   :      1.70557      -0.15087      -1.39001
                        -----------------------------------------
Total Dipole Moment    :      0.37068      -0.47007      -0.28371
                        -----------------------------------------
Magnitude (a.u.)       :      0.66247
Magnitude (Debye)      :      1.68386

Rotational constants in cm-1:     4.321764     0.822087     0.795234
Rotational constants in MHz : 129563.211810 24645.558448 23840.523179

                             ****ORCA TERMINATED NORMALLY****
TOTAL RUN TIME: 0 days 0 hours 1 minutes 4 seconds 350 msec
