                         Program Version 4.1.2  - RELEASE  -
|  1> #Run DFT-D3 single point of the dimer
|  2> ! wB97X-D3 def2-TZVP TIGHTSCF CHELPG PMODEL PAL8
|  3>
|  4> %base "1-59_DFT_AB"
|  5>
|  6> %scf
|  7> MaxIter 1000
|  8> end
|  9>
| 10> * xyz 0 1
| 11>   C                      -2.795325            9.217840             5.555766
| 12>   O                      -3.946272            9.686863             6.213946
| 13>   H                      -3.969267            9.351075             7.120477
| 14>   H                      -2.991524            9.209093             4.464861
| 15>   H                      -1.885058            9.769403             5.855998
| 16>   H                      -2.593840            8.207868             5.831886
| 17>   C                      -0.240587            10.641804            7.865057
| 18>   O                      0.666583             10.079060            8.810300
| 19>   H                      1.484784             10.337458            8.448530
| 20>   H                      -0.117658            10.286621            6.892133
| 21>   H                      -1.280444            10.364790            8.099353
| 22>   H                      -0.135803            11.692860            7.881449
| 23> *
| 24>
| 25> #Run DFT-D3 single point of the molecule with dimer basis set
| 26> $new_job
| 27> %base "1-59_DFT_A"
| 28> ! wB97X-D3 def2-TZVP TIGHTSCF CHELPG PMODEL
| 29>
| 30> %scf
| 31> MaxIter 1000
| 32> end
| 33>
| 34> * xyz 0 1
| 35>   C                      -2.795325            9.217840             5.555766
| 36>   O                      -3.946272            9.686863             6.213946
| 37>   H                      -3.969267            9.351075             7.120477
| 38>   H                      -2.991524            9.209093             4.464861
| 39>   H                      -1.885058            9.769403             5.855998
| 40>   H                      -2.593840            8.207868             5.831886
| 41>   C                    : -0.240587            10.641804            7.865057
| 42>   O                    : 0.666583             10.079060            8.810300
| 43>   H                    : 1.484784             10.337458            8.448530
| 44>   H                    : -0.117658            10.286621            6.892133
| 45>   H                    : -1.280444            10.364790            8.099353
| 46>   H                    : -0.135803            11.692860            7.881449
| 47> *
| 48>
| 49> #Run DFT-D3 single point of the particle with dimer basis set
| 50> $new_job
| 51> %base "1-59_DFT_B"
| 52> ! wB97X-D3 def2-TZVP TIGHTSCF CHELPG PMODEL
| 53>
| 54> %scf
| 55> MaxIter 1000
| 56> end
| 57>
| 58> * xyz 0 1
| 59>   C                    : -2.795325            9.217840             5.555766
| 60>   O                    : -3.946272            9.686863             6.213946
| 61>   H                    : -3.969267            9.351075             7.120477
| 62>   H                    : -2.991524            9.209093             4.464861
| 63>   H                    : -1.885058            9.769403             5.855998
| 64>   H                    : -2.593840            8.207868             5.831886
| 65>   C                      -0.240587            10.641804            7.865057
| 66>   O                      0.666583             10.079060            8.810300
| 67>   H                      1.484784             10.337458            8.448530
| 68>   H                      -0.117658            10.286621            6.892133
| 69>   H                      -1.280444            10.364790            8.099353
| 70>   H                      -0.135803            11.692860            7.881449
| 71> *
| 72>
| 73>                          ****END OF INPUT****
 Total Charge           Charge          ....    0
 Multiplicity           Mult            ....    1
 Number of Electrons    NEL             ....   36
Dispersion correction           -0.001591435
FINAL SINGLE POINT ENERGY      -231.465985819173
Dispersion correction           -0.000237326
FINAL SINGLE POINT ENERGY      -115.734795652115

CARTESIAN COORDINATES (ANGSTROEM)
---------------------------------
  C     -2.795325    9.217840    5.555766
  O     -3.946272    9.686863    6.213946
  H     -3.969267    9.351075    7.120477
  H     -2.991524    9.209093    4.464861
  H     -1.885058    9.769403    5.855998
  H     -2.593840    8.207868    5.831886
  C     -0.240587   10.641804    7.865057
  O      0.666583   10.079060    8.810300
  H      1.484784   10.337458    8.448530
  H     -0.117658   10.286621    6.892133
  H     -1.280444   10.364790    8.099353
  H     -0.135803   11.692860    7.881449

 Multiplicity           Mult            ....    1
 Number of Electrons    NEL             ....   18
 Basis Dimension        Dim             ....  172

ORBITAL ENERGIES
----------------

  NO   OCC          E(Eh)            E(eV)
   0   2.0000     -19.228573      -523.2361
   1   2.0000     -10.305235      -280.4197
   2   2.0000      -1.142949       -31.1012
   3   2.0000      -0.802497       -21.8371
   4   2.0000      -0.611828       -16.6487
   5   2.0000      -0.554454       -15.0875
   6   2.0000      -0.522705       -14.2235
   7   2.0000      -0.441975       -12.0268
   8   2.0000      -0.377684       -10.2773
   9   0.0000       0.085943         2.3386
  10   0.0000       0.120565         3.2807
  11   0.0000       0.156029         4.2458
  12   0.0000       0.166751         4.5375
  13   0.0000       0.188815         5.1379

MULLIKEN ATOMIC CHARGES
-----------------------
   0 C :    0.000174
   1 O :    0.000160
   2 H :   -0.000124
   3 H :   -0.000246
   4 H :   -0.003927
   5 H :    0.000449
   6 C :   -0.166392
   7 O :   -0.462460
   8 H :    0.307264
   9 H :    0.104121
  10 H :    0.113675
  11 H :    0.107306
Sum of atomic charges:    0.0000000

LOEWDIN ATOMIC CHARGES
----------------------
   0 C :   -0.004866
   1 O :   -0.000184
   2 H :   -0.000607
   3 H :   -0.000027
   4 H :   -0.009960
   5 H :   -0.000116
   6 C :   -0.362036
   7 O :   -0.067344
   8 H :    0.151864
   9 H :    0.088652
  10 H :    0.114611
  11 H :    0.090014

  Mayer bond orders larger than 0.1
B(  6-C ,  7-O ) :   0.9922 B(  6-C ,  9-H ) :   0.9783 B(  6-C , 10-H ) :   0.9755
B(  6-C , 11-H ) :   0.9764 B(  7-O ,  8-H ) :   0.9104

Dispersion correction           -0.000211807
FINAL SINGLE POINT ENERGY      -115.731123688321

DIPOLE MOMENT
-------------
                                X             Y             Z
Electronic contribution:      1.09381      -0.76296       1.26012
Nuclear contribution   :     -0.94458       1.14415      -1.87791
                        -----------------------------------------
Total Dipole Moment    :      0.14922       0.38119      -0.61779
                        -----------------------------------------
Magnitude (a.u.)       :      0.74110
Magnitude (Debye)      :      1.88373

Rotational constants in cm-1:     4.489848     0.833167     0.802041
Rotational constants in MHz : 134602.250225 24977.729077 24044.579749

                             ****ORCA TERMINATED NORMALLY****
TOTAL RUN TIME: 0 days 0 hours 5 minutes 51 seconds 658 msec
