                         Program Version 4.1.2  - RELEASE  -
|  1> #Run DFT-D3 single point of the dimer
|  2> ! wB97X-D3 def2-TZVP TIGHTSCF CHELPG PMODEL PAL8
|  3>
|  4> %base "14-191_DFT_AB"
|  5>
|  6> %scf
|  7> MaxIter 1000
|  8> end
|  9>
| 10> * xyz 0 1
| 11>   C                      0.056977             -5.274057            -4.767451
| 12>   O                      0.704378             -4.133532            -4.233959
| 13>   H                      1.190929             -3.653032            -4.940093
| 14>   H                      -0.758321            -5.637046            -4.177142
| 15>   H                      -0.247004            -5.116081            -5.771249
| 16>   H                      0.774531             -6.032431            -4.654513
| 17>   C                      -1.373571            -3.705527            -1.475902
| 18>   O                      -0.162708            -4.425237            -1.466912
| 19>   H                      0.089455             -4.407431            -2.392354
| 20>   H                      -1.579773            -3.360214            -2.541240
| 21>   H                      -2.206806            -4.307433            -1.158718
| 22>   H                      -1.376935            -2.795446            -0.873516
| 23> *
| 24>
| 25> #Run DFT-D3 single point of the molecule with dimer basis set
| 26> $new_job
| 27> %base "14-191_DFT_A"
| 28> ! wB97X-D3 def2-TZVP TIGHTSCF CHELPG PMODEL
| 29>
| 30> %scf
| 31> MaxIter 1000
| 32> end
| 33>
| 34> * xyz 0 1
| 35>   C                      0.056977             -5.274057            -4.767451
| 36>   O                      0.704378             -4.133532            -4.233959
| 37>   H                      1.190929             -3.653032            -4.940093
| 38>   H                      -0.758321            -5.637046            -4.177142
| 39>   H                      -0.247004            -5.116081            -5.771249
| 40>   H                      0.774531             -6.032431            -4.654513
| 41>   C                    : -1.373571            -3.705527            -1.475902
| 42>   O                    : -0.162708            -4.425237            -1.466912
| 43>   H                    : 0.089455             -4.407431            -2.392354
| 44>   H                    : -1.579773            -3.360214            -2.541240
| 45>   H                    : -2.206806            -4.307433            -1.158718
| 46>   H                    : -1.376935            -2.795446            -0.873516
| 47> *
| 48>
| 49> #Run DFT-D3 single point of the particle with dimer basis set
| 50> $new_job
| 51> %base "14-191_DFT_B"
| 52> ! wB97X-D3 def2-TZVP TIGHTSCF CHELPG PMODEL
| 53>
| 54> %scf
| 55> MaxIter 1000
| 56> end
| 57>
| 58> * xyz 0 1
| 59>   C                    : 0.056977             -5.274057            -4.767451
| 60>   O                    : 0.704378             -4.133532            -4.233959
| 61>   H                    : 1.190929             -3.653032            -4.940093
| 62>   H                    : -0.758321            -5.637046            -4.177142
| 63>   H                    : -0.247004            -5.116081            -5.771249
| 64>   H                    : 0.774531             -6.032431            -4.654513
| 65>   C                      -1.373571            -3.705527            -1.475902
| 66>   O                      -0.162708            -4.425237            -1.466912
| 67>   H                      0.089455             -4.407431            -2.392354
| 68>   H                      -1.579773            -3.360214            -2.541240
| 69>   H                      -2.206806            -4.307433            -1.158718
| 70>   H                      -1.376935            -2.795446            -0.873516
| 71> *
| 72>
| 73>                          ****END OF INPUT****
 Total Charge           Charge          ....    0
 Multiplicity           Mult            ....    1
 Number of Electrons    NEL             ....   36
Dispersion correction           -0.002049427
FINAL SINGLE POINT ENERGY      -231.469005047472
Dispersion correction           -0.000224532
FINAL SINGLE POINT ENERGY      -115.728970938572

CARTESIAN COORDINATES (ANGSTROEM)
---------------------------------
  C      0.056977   -5.274057   -4.767451
  O      0.704378   -4.133532   -4.233959
  H      1.190929   -3.653032   -4.940093
  H     -0.758321   -5.637046   -4.177142
  H     -0.247004   -5.116081   -5.771249
  H      0.774531   -6.032431   -4.654513
  C     -1.373571   -3.705527   -1.475902
  O     -0.162708   -4.425237   -1.466912
  H      0.089455   -4.407431   -2.392354
  H     -1.579773   -3.360214   -2.541240
  H     -2.206806   -4.307433   -1.158718
  H     -1.376935   -2.795446   -0.873516

 Multiplicity           Mult            ....    1
 Number of Electrons    NEL             ....   18
 Basis Dimension        Dim             ....  172

ORBITAL ENERGIES
----------------

  NO   OCC          E(Eh)            E(eV)
   0   2.0000     -19.233884      -523.3806
   1   2.0000     -10.316186      -280.7177
   2   2.0000      -1.143698       -31.1216
   3   2.0000      -0.792031       -21.5523
   4   2.0000      -0.612067       -16.6552
   5   2.0000      -0.543317       -14.7844
   6   2.0000      -0.532430       -14.4881
   7   2.0000      -0.433240       -11.7891
   8   2.0000      -0.377040       -10.2598
   9   0.0000       0.066370         1.8060
  10   0.0000       0.138763         3.7759
  11   0.0000       0.150710         4.1010
  12   0.0000       0.160782         4.3751
  13   0.0000       0.184398         5.0177

MULLIKEN ATOMIC CHARGES
-----------------------
   0 C :   -0.005582
   1 O :   -0.003642
   2 H :   -0.000298
   3 H :   -0.001540
   4 H :   -0.000301
   5 H :    0.000965
   6 C :   -0.167829
   7 O :   -0.454586
   8 H :    0.318408
   9 H :    0.090739
  10 H :    0.112484
  11 H :    0.111182
Sum of atomic charges:   -0.0000000

LOEWDIN ATOMIC CHARGES
----------------------
   0 C :   -0.010604
   1 O :   -0.017004
   2 H :   -0.000603
   3 H :   -0.003202
   4 H :   -0.000145
   5 H :   -0.000326
   6 C :   -0.390425
   7 O :   -0.057560
   8 H :    0.182614
   9 H :    0.104210
  10 H :    0.095225
  11 H :    0.097819

  Mayer bond orders larger than 0.1
B(  6-C ,  7-O ) :   0.9958 B(  6-C ,  9-H ) :   0.9913 B(  6-C , 10-H ) :   0.9741
B(  6-C , 11-H ) :   0.9733 B(  7-O ,  8-H ) :   0.9115

Dispersion correction           -0.000239269
FINAL SINGLE POINT ENERGY      -115.732343557279

DIPOLE MOMENT
-------------
                                X             Y             Z
Electronic contribution:      1.60473      -1.01475       0.30937
Nuclear contribution   :     -1.91548       1.30356      -0.88743
                        -----------------------------------------
Total Dipole Moment    :     -0.31075       0.28882      -0.57806
                        -----------------------------------------
Magnitude (a.u.)       :      0.71703
Magnitude (Debye)      :      1.82256

Rotational constants in cm-1:     4.243541     0.840503     0.804578
Rotational constants in MHz : 127218.162328 25197.652898 24120.629548

                             ****ORCA TERMINATED NORMALLY****
TOTAL RUN TIME: 0 days 0 hours 1 minutes 9 seconds 77 msec
