                         Program Version 4.1.2  - RELEASE  -
|  1> #Run DFT-D3 single point of the dimer
|  2> ! wB97X-D3 def2-TZVP TIGHTSCF CHELPG PMODEL PAL8
|  3>
|  4> %base "9-200_DFT_AB"
|  5>
|  6> %scf
|  7> MaxIter 1000
|  8> end
|  9>
| 10> * xyz 0 1
| 11>   C                      -0.289566            3.490172             -5.604841
| 12>   O                      0.546400             2.618883             -4.934804
| 13>   H                      -0.019279            2.235330             -4.215222
| 14>   H                      -0.671834            4.261893             -4.860705
| 15>   H                      0.183898             4.069390             -6.381247
| 16>   H                      -1.227951            3.063143             -5.952226
| 17>   C                      2.403711             2.233500             -2.240277
| 18>   O                      2.961890             1.900304             -3.510987
| 19>   H                      2.285466             2.224040             -4.178838
| 20>   H                      3.212827             2.323104             -1.545528
| 21>   H                      1.740199             3.100437             -2.266122
| 22>   H                      1.691648             1.586078             -1.791668
| 23> *
| 24>
| 25> #Run DFT-D3 single point of the molecule with dimer basis set
| 26> $new_job
| 27> %base "9-200_DFT_A"
| 28> ! wB97X-D3 def2-TZVP TIGHTSCF CHELPG PMODEL
| 29>
| 30> %scf
| 31> MaxIter 1000
| 32> end
| 33>
| 34> * xyz 0 1
| 35>   C                      -0.289566            3.490172             -5.604841
| 36>   O                      0.546400             2.618883             -4.934804
| 37>   H                      -0.019279            2.235330             -4.215222
| 38>   H                      -0.671834            4.261893             -4.860705
| 39>   H                      0.183898             4.069390             -6.381247
| 40>   H                      -1.227951            3.063143             -5.952226
| 41>   C                    : 2.403711             2.233500             -2.240277
| 42>   O                    : 2.961890             1.900304             -3.510987
| 43>   H                    : 2.285466             2.224040             -4.178838
| 44>   H                    : 3.212827             2.323104             -1.545528
| 45>   H                    : 1.740199             3.100437             -2.266122
| 46>   H                    : 1.691648             1.586078             -1.791668
| 47> *
| 48>
| 49> #Run DFT-D3 single point of the particle with dimer basis set
| 50> $new_job
| 51> %base "9-200_DFT_B"
| 52> ! wB97X-D3 def2-TZVP TIGHTSCF CHELPG PMODEL
| 53>
| 54> %scf
| 55> MaxIter 1000
| 56> end
| 57>
| 58> * xyz 0 1
| 59>   C                    : -0.289566            3.490172             -5.604841
| 60>   O                    : 0.546400             2.618883             -4.934804
| 61>   H                    : -0.019279            2.235330             -4.215222
| 62>   H                    : -0.671834            4.261893             -4.860705
| 63>   H                    : 0.183898             4.069390             -6.381247
| 64>   H                    : -1.227951            3.063143             -5.952226
| 65>   C                      2.403711             2.233500             -2.240277
| 66>   O                      2.961890             1.900304             -3.510987
| 67>   H                      2.285466             2.224040             -4.178838
| 68>   H                      3.212827             2.323104             -1.545528
| 69>   H                      1.740199             3.100437             -2.266122
| 70>   H                      1.691648             1.586078             -1.791668
| 71> *
| 72>
| 73>                          ****END OF INPUT****
 Total Charge           Charge          ....    0
 Multiplicity           Mult            ....    1
 Number of Electrons    NEL             ....   36
Dispersion correction           -0.001833209
FINAL SINGLE POINT ENERGY      -231.465130221823
Dispersion correction           -0.000221476
FINAL SINGLE POINT ENERGY      -115.730820190816

CARTESIAN COORDINATES (ANGSTROEM)
---------------------------------
  C     -0.289566    3.490172   -5.604841
  O      0.546400    2.618883   -4.934804
  H     -0.019279    2.235330   -4.215222
  H     -0.671834    4.261893   -4.860705
  H      0.183898    4.069390   -6.381247
  H     -1.227951    3.063143   -5.952226
  C      2.403711    2.233500   -2.240277
  O      2.961890    1.900304   -3.510987
  H      2.285466    2.224040   -4.178838
  H      3.212827    2.323104   -1.545528
  H      1.740199    3.100437   -2.266122
  H      1.691648    1.586078   -1.791668

 Multiplicity           Mult            ....    1
 Number of Electrons    NEL             ....   18
 Basis Dimension        Dim             ....  172

ORBITAL ENERGIES
----------------

  NO   OCC          E(Eh)            E(eV)
   0   2.0000     -19.239224      -523.5259
   1   2.0000     -10.307857      -280.4910
   2   2.0000      -1.127869       -30.6909
   3   2.0000      -0.799935       -21.7673
   4   2.0000      -0.615453       -16.7473
   5   2.0000      -0.528605       -14.3841
   6   2.0000      -0.524592       -14.2749
   7   2.0000      -0.447045       -12.1647
   8   2.0000      -0.371396       -10.1062
   9   0.0000       0.065006         1.7689
  10   0.0000       0.126857         3.4520
  11   0.0000       0.144074         3.9205
  12   0.0000       0.172908         4.7051
  13   0.0000       0.186989         5.0882

MULLIKEN ATOMIC CHARGES
-----------------------
   0 C :   -0.002037
   1 O :   -0.006395
   2 H :   -0.000009
   3 H :   -0.000048
   4 H :    0.000125
   5 H :    0.000009
   6 C :   -0.176415
   7 O :   -0.464100
   8 H :    0.320162
   9 H :    0.124766
  10 H :    0.101447
  11 H :    0.102495
Sum of atomic charges:    0.0000000

LOEWDIN ATOMIC CHARGES
----------------------
   0 C :   -0.001808
   1 O :   -0.022094
   2 H :   -0.003236
   3 H :   -0.000089
   4 H :   -0.000059
   5 H :   -0.000050
   6 C :   -0.381648
   7 O :   -0.087803
   8 H :    0.206043
   9 H :    0.103786
  10 H :    0.097565
  11 H :    0.089393

  Mayer bond orders larger than 0.1
B(  6-C ,  7-O ) :   1.0003 B(  6-C ,  9-H ) :   0.9822 B(  6-C , 10-H ) :   0.9824
B(  6-C , 11-H ) :   0.9656 B(  7-O ,  8-H ) :   0.8994

Dispersion correction           -0.000253635
FINAL SINGLE POINT ENERGY      -115.726916578023

DIPOLE MOMENT
-------------
                                X             Y             Z
Electronic contribution:      0.95679      -0.54006      -1.60213
Nuclear contribution   :     -1.60299       0.86748       1.69864
                        -----------------------------------------
Total Dipole Moment    :     -0.64621       0.32743       0.09651
                        -----------------------------------------
Magnitude (a.u.)       :      0.73082
Magnitude (Debye)      :      1.85761

Rotational constants in cm-1:     4.439930     0.824090     0.774393
Rotational constants in MHz : 133105.744877 24705.605420 23215.716626

                             ****ORCA TERMINATED NORMALLY****
TOTAL RUN TIME: 0 days 0 hours 0 minutes 45 seconds 584 msec
