                         Program Version 4.1.2  - RELEASE  -
|  1> #Run DFT-D3 single point of the dimer
|  2> ! wB97X-D3 def2-TZVP TIGHTSCF CHELPG PMODEL PAL8
|  3>
|  4> %base "10-153_DFT_AB"
|  5>
|  6> %scf
|  7> MaxIter 1000
|  8> end
|  9>
| 10> * xyz 0 1
| 11>   C                      -5.799757            -5.382301            -3.309285
| 12>   O                      -5.571578            -6.796406            -3.245755
| 13>   H                      -6.066309            -7.120056            -2.492047
| 14>   H                      -4.931166            -4.812003            -2.829833
| 15>   H                      -5.700627            -5.082467            -4.383925
| 16>   H                      -6.754512            -4.977609            -3.005592
| 17>   C                      -8.729305            -8.214980            -3.029853
| 18>   O                      -8.095846            -7.329674            -2.136110
| 19>   H                      -8.783612            -7.055352            -1.455014
| 20>   H                      -9.086881            -9.162493            -2.596128
| 21>   H                      -9.593081            -7.776695            -3.531411
| 22>   H                      -7.946672            -8.537519            -3.705466
| 23> *
| 24>
| 25> #Run DFT-D3 single point of the molecule with dimer basis set
| 26> $new_job
| 27> %base "10-153_DFT_A"
| 28> ! wB97X-D3 def2-TZVP TIGHTSCF CHELPG PMODEL
| 29>
| 30> %scf
| 31> MaxIter 1000
| 32> end
| 33>
| 34> * xyz 0 1
| 35>   C                      -5.799757            -5.382301            -3.309285
| 36>   O                      -5.571578            -6.796406            -3.245755
| 37>   H                      -6.066309            -7.120056            -2.492047
| 38>   H                      -4.931166            -4.812003            -2.829833
| 39>   H                      -5.700627            -5.082467            -4.383925
| 40>   H                      -6.754512            -4.977609            -3.005592
| 41>   C                    : -8.729305            -8.214980            -3.029853
| 42>   O                    : -8.095846            -7.329674            -2.136110
| 43>   H                    : -8.783612            -7.055352            -1.455014
| 44>   H                    : -9.086881            -9.162493            -2.596128
| 45>   H                    : -9.593081            -7.776695            -3.531411
| 46>   H                    : -7.946672            -8.537519            -3.705466
| 47> *
| 48>
| 49> #Run DFT-D3 single point of the particle with dimer basis set
| 50> $new_job
| 51> %base "10-153_DFT_B"
| 52> ! wB97X-D3 def2-TZVP TIGHTSCF CHELPG PMODEL
| 53>
| 54> %scf
| 55> MaxIter 1000
| 56> end
| 57>
| 58> * xyz 0 1
| 59>   C                    : -5.799757            -5.382301            -3.309285
| 60>   O                    : -5.571578            -6.796406            -3.245755
| 61>   H                    : -6.066309            -7.120056            -2.492047
| 62>   H                    : -4.931166            -4.812003            -2.829833
| 63>   H                    : -5.700627            -5.082467            -4.383925
| 64>   H                    : -6.754512            -4.977609            -3.005592
| 65>   C                      -8.729305            -8.214980            -3.029853
| 66>   O                      -8.095846            -7.329674            -2.136110
| 67>   H                      -8.783612            -7.055352            -1.455014
| 68>   H                      -9.086881            -9.162493            -2.596128
| 69>   H                      -9.593081            -7.776695            -3.531411
| 70>   H                      -7.946672            -8.537519            -3.705466
| 71> *
| 72>
| 73>                          ****END OF INPUT****
 Total Charge           Charge          ....    0
 Multiplicity           Mult            ....    1
 Number of Electrons    NEL             ....   36
Dispersion correction           -0.002051254
FINAL SINGLE POINT ENERGY      -231.472535093179
Dispersion correction           -0.000279559
FINAL SINGLE POINT ENERGY      -115.732083305118

CARTESIAN COORDINATES (ANGSTROEM)
---------------------------------
  C     -5.799757   -5.382301   -3.309285
  O     -5.571578   -6.796406   -3.245755
  H     -6.066309   -7.120056   -2.492047
  H     -4.931166   -4.812003   -2.829833
  H     -5.700627   -5.082467   -4.383925
  H     -6.754512   -4.977609   -3.005592
  C     -8.729305   -8.214980   -3.029853
  O     -8.095846   -7.329674   -2.136110
  H     -8.783612   -7.055352   -1.455014
  H     -9.086881   -9.162493   -2.596128
  H     -9.593081   -7.776695   -3.531411
  H     -7.946672   -8.537519   -3.705466

 Multiplicity           Mult            ....    1
 Number of Electrons    NEL             ....   18
 Basis Dimension        Dim             ....  172

ORBITAL ENERGIES
----------------

  NO   OCC          E(Eh)            E(eV)
   0   2.0000     -19.237204      -523.4709
   1   2.0000     -10.311062      -280.5783
   2   2.0000      -1.131790       -30.7976
   3   2.0000      -0.792518       -21.5655
   4   2.0000      -0.611219       -16.6321
   5   2.0000      -0.542136       -14.7523
   6   2.0000      -0.519838       -14.1455
   7   2.0000      -0.437352       -11.9009
   8   2.0000      -0.373406       -10.1609
   9   0.0000       0.097171         2.6441
  10   0.0000       0.124038         3.3752
  11   0.0000       0.151553         4.1240
  12   0.0000       0.180840         4.9209
  13   0.0000       0.204643         5.5686

MULLIKEN ATOMIC CHARGES
-----------------------
   0 C :    0.007146
   1 O :    0.000691
   2 H :   -0.008580
   3 H :   -0.000381
   4 H :   -0.000433
   5 H :   -0.009432
   6 C :   -0.161616
   7 O :   -0.458186
   8 H :    0.310664
   9 H :    0.095244
  10 H :    0.102009
  11 H :    0.122873
Sum of atomic charges:   -0.0000000

LOEWDIN ATOMIC CHARGES
----------------------
   0 C :   -0.009487
   1 O :   -0.005300
   2 H :   -0.026624
   3 H :   -0.000088
   4 H :   -0.000099
   5 H :   -0.005487
   6 C :   -0.394236
   7 O :   -0.050421
   8 H :    0.193787
   9 H :    0.094092
  10 H :    0.093756
  11 H :    0.110107

  Mayer bond orders larger than 0.1
B(  6-C ,  7-O ) :   1.0019 B(  6-C ,  9-H ) :   0.9672 B(  6-C , 10-H ) :   0.9729
B(  6-C , 11-H ) :   0.9784 B(  7-O ,  8-H ) :   0.8934

Dispersion correction           -0.000247865
FINAL SINGLE POINT ENERGY      -115.734045646967

DIPOLE MOMENT
-------------
                                X             Y             Z
Electronic contribution:      0.92168       1.19340       1.06223
Nuclear contribution   :     -1.58638      -1.38358      -0.98660
                        -----------------------------------------
Total Dipole Moment    :     -0.66470      -0.19018       0.07563
                        -----------------------------------------
Magnitude (a.u.)       :      0.69549
Magnitude (Debye)      :      1.76781

Rotational constants in cm-1:     4.251617     0.836514     0.799893
Rotational constants in MHz : 127460.262807 25078.047631 23980.195230

                             ****ORCA TERMINATED NORMALLY****
TOTAL RUN TIME: 0 days 0 hours 1 minutes 5 seconds 633 msec
