                         Program Version 4.1.2  - RELEASE  -
|  1> #Run DFT-D3 single point of the dimer
|  2> ! wB97X-D3 def2-TZVP TIGHTSCF CHELPG PMODEL PAL8
|  3>
|  4> %base "2-83_DFT_AB"
|  5>
|  6> %scf
|  7> MaxIter 1000
|  8> end
|  9>
| 10> * xyz 0 1
| 11>   C                      3.109948             -9.032840            -10.902030
| 12>   O                      3.398500             -8.189306            -9.812126
| 13>   H                      2.667794             -8.164677            -9.192085
| 14>   H                      2.527054             -9.914284            -10.648775
| 15>   H                      2.584791             -8.426579            -11.676514
| 16>   H                      4.025159             -9.343973            -11.343113
| 17>   C                      5.872603             -7.265969            -7.790391
| 18>   O                      7.028637             -7.927635            -7.277919
| 19>   H                      7.342080             -8.513924            -7.926451
| 20>   H                      6.144789             -6.755487            -8.739153
| 21>   H                      5.013410             -7.961198            -7.953895
| 22>   H                      5.525942             -6.520121            -7.110344
| 23> *
| 24>
| 25> #Run DFT-D3 single point of the molecule with dimer basis set
| 26> $new_job
| 27> %base "2-83_DFT_A"
| 28> ! wB97X-D3 def2-TZVP TIGHTSCF CHELPG PMODEL
| 29>
| 30> %scf
| 31> MaxIter 1000
| 32> end
| 33>
| 34> * xyz 0 1
| 35>   C                      3.109948             -9.032840            -10.902030
| 36>   O                      3.398500             -8.189306            -9.812126
| 37>   H                      2.667794             -8.164677            -9.192085
| 38>   H                      2.527054             -9.914284            -10.648775
| 39>   H                      2.584791             -8.426579            -11.676514
| 40>   H                      4.025159             -9.343973            -11.343113
| 41>   C                    : 5.872603             -7.265969            -7.790391
| 42>   O                    : 7.028637             -7.927635            -7.277919
| 43>   H                    : 7.342080             -8.513924            -7.926451
| 44>   H                    : 6.144789             -6.755487            -8.739153
| 45>   H                    : 5.013410             -7.961198            -7.953895
| 46>   H                    : 5.525942             -6.520121            -7.110344
| 47> *
| 48>
| 49> #Run DFT-D3 single point of the particle with dimer basis set
| 50> $new_job
| 51> %base "2-83_DFT_B"
| 52> ! wB97X-D3 def2-TZVP TIGHTSCF CHELPG PMODEL
| 53>
| 54> %scf
| 55> MaxIter 1000
| 56> end
| 57>
| 58> * xyz 0 1
| 59>   C                    : 3.109948             -9.032840            -10.902030
| 60>   O                    : 3.398500             -8.189306            -9.812126
| 61>   H                    : 2.667794             -8.164677            -9.192085
| 62>   H                    : 2.527054             -9.914284            -10.648775
| 63>   H                    : 2.584791             -8.426579            -11.676514
| 64>   H                    : 4.025159             -9.343973            -11.343113
| 65>   C                      5.872603             -7.265969            -7.790391
| 66>   O                      7.028637             -7.927635            -7.277919
| 67>   H                      7.342080             -8.513924            -7.926451
| 68>   H                      6.144789             -6.755487            -8.739153
| 69>   H                      5.013410             -7.961198            -7.953895
| 70>   H                      5.525942             -6.520121            -7.110344
| 71> *
| 72>
| 73>                          ****END OF INPUT****
 Total Charge           Charge          ....    0
 Multiplicity           Mult            ....    1
 Number of Electrons    NEL             ....   36
Dispersion correction           -0.001448626
FINAL SINGLE POINT ENERGY      -231.471854397266
Dispersion correction           -0.000244312
FINAL SINGLE POINT ENERGY      -115.735814755666

CARTESIAN COORDINATES (ANGSTROEM)
---------------------------------
  C      3.109948   -9.032840  -10.902030
  O      3.398500   -8.189306   -9.812126
  H      2.667794   -8.164677   -9.192085
  H      2.527054   -9.914284  -10.648775
  H      2.584791   -8.426579  -11.676514
  H      4.025159   -9.343973  -11.343113
  C      5.872603   -7.265969   -7.790391
  O      7.028637   -7.927635   -7.277919
  H      7.342080   -8.513924   -7.926451
  H      6.144789   -6.755487   -8.739153
  H      5.013410   -7.961198   -7.953895
  H      5.525942   -6.520121   -7.110344

 Multiplicity           Mult            ....    1
 Number of Electrons    NEL             ....   18
 Basis Dimension        Dim             ....  172

ORBITAL ENERGIES
----------------

  NO   OCC          E(Eh)            E(eV)
   0   2.0000     -19.226622      -523.1830
   1   2.0000     -10.316185      -280.7177
   2   2.0000      -1.138065       -30.9683
   3   2.0000      -0.798555       -21.7298
   4   2.0000      -0.608754       -16.5650
   5   2.0000      -0.540568       -14.7096
   6   2.0000      -0.530851       -14.4452
   7   2.0000      -0.433791       -11.8041
   8   2.0000      -0.374707       -10.1963
   9   0.0000       0.080531         2.1914
  10   0.0000       0.120490         3.2787
  11   0.0000       0.144562         3.9337
  12   0.0000       0.174331         4.7438
  13   0.0000       0.191494         5.2108

MULLIKEN ATOMIC CHARGES
-----------------------
   0 C :   -0.000725
   1 O :   -0.000975
   2 H :   -0.000734
   3 H :    0.000001
   4 H :    0.000011
   5 H :    0.000021
   6 C :   -0.158451
   7 O :   -0.472420
   8 H :    0.308120
   9 H :    0.100174
  10 H :    0.100463
  11 H :    0.124514
Sum of atomic charges:    0.0000000

LOEWDIN ATOMIC CHARGES
----------------------
   0 C :   -0.000856
   1 O :   -0.007711
   2 H :   -0.002205
   3 H :   -0.000018
   4 H :   -0.000022
   5 H :   -0.000056
   6 C :   -0.371061
   7 O :   -0.070820
   8 H :    0.146409
   9 H :    0.100203
  10 H :    0.103309
  11 H :    0.102827

  Mayer bond orders larger than 0.1
B(  6-C ,  7-O ) :   0.9950 B(  6-C ,  9-H ) :   0.9817 B(  6-C , 10-H ) :   0.9756
B(  6-C , 11-H ) :   0.9691 B(  7-O ,  8-H ) :   0.9080

Dispersion correction           -0.000244434
FINAL SINGLE POINT ENERGY      -115.735056665022

DIPOLE MOMENT
-------------
                                X             Y             Z
Electronic contribution:      1.45413      -0.76464       0.81436
Nuclear contribution   :     -1.71841       0.67193      -1.42226
                        -----------------------------------------
Total Dipole Moment    :     -0.26428      -0.09271      -0.60789
                        -----------------------------------------
Magnitude (a.u.)       :      0.66931
Magnitude (Debye)      :      1.70125

Rotational constants in cm-1:     4.322810     0.814692     0.794103
Rotational constants in MHz : 129594.572986 24423.839069 23806.620668

                             ****ORCA TERMINATED NORMALLY****
TOTAL RUN TIME: 0 days 0 hours 6 minutes 0 seconds 89 msec
