                         Program Version 4.1.2  - RELEASE  -
|  1> #Run DFT-D3 single point of the dimer
|  2> ! wB97X-D3 def2-TZVP TIGHTSCF CHELPG PMODEL PAL8
|  3>
|  4> %base "16-204_DFT_AB"
|  5>
|  6> %scf
|  7> MaxIter 1000
|  8> end
|  9>
| 10> * xyz 0 1
| 11>   C                      8.386589             -2.071084            0.136548
| 12>   O                      8.601120             -2.945565            1.138944
| 13>   H                      8.944620             -3.784595            0.801443
| 14>   H                      9.232089             -1.678624            -0.281873
| 15>   H                      7.906528             -2.696329            -0.613378
| 16>   H                      7.677471             -1.266587            0.351767
| 17>   C                      6.734664             -1.465832            4.134875
| 18>   O                      6.850133             -2.723269            3.574663
| 19>   H                      7.554024             -2.634037            2.919549
| 20>   H                      7.197122             -0.684707            3.440621
| 21>   H                      5.634631             -1.156529            4.236709
| 22>   H                      7.234480             -1.426352            5.052072
| 23> *
| 24>
| 25> #Run DFT-D3 single point of the molecule with dimer basis set
| 26> $new_job
| 27> %base "16-204_DFT_A"
| 28> ! wB97X-D3 def2-TZVP TIGHTSCF CHELPG PMODEL
| 29>
| 30> %scf
| 31> MaxIter 1000
| 32> end
| 33>
| 34> * xyz 0 1
| 35>   C                      8.386589             -2.071084            0.136548
| 36>   O                      8.601120             -2.945565            1.138944
| 37>   H                      8.944620             -3.784595            0.801443
| 38>   H                      9.232089             -1.678624            -0.281873
| 39>   H                      7.906528             -2.696329            -0.613378
| 40>   H                      7.677471             -1.266587            0.351767
| 41>   C                    : 6.734664             -1.465832            4.134875
| 42>   O                    : 6.850133             -2.723269            3.574663
| 43>   H                    : 7.554024             -2.634037            2.919549
| 44>   H                    : 7.197122             -0.684707            3.440621
| 45>   H                    : 5.634631             -1.156529            4.236709
| 46>   H                    : 7.234480             -1.426352            5.052072
| 47> *
| 48>
| 49> #Run DFT-D3 single point of the particle with dimer basis set
| 50> $new_job
| 51> %base "16-204_DFT_B"
| 52> ! wB97X-D3 def2-TZVP TIGHTSCF CHELPG PMODEL
| 53>
| 54> %scf
| 55> MaxIter 1000
| 56> end
| 57>
| 58> * xyz 0 1
| 59>   C                    : 8.386589             -2.071084            0.136548
| 60>   O                    : 8.601120             -2.945565            1.138944
| 61>   H                    : 8.944620             -3.784595            0.801443
| 62>   H                    : 9.232089             -1.678624            -0.281873
| 63>   H                    : 7.906528             -2.696329            -0.613378
| 64>   H                    : 7.677471             -1.266587            0.351767
| 65>   C                      6.734664             -1.465832            4.134875
| 66>   O                      6.850133             -2.723269            3.574663
| 67>   H                      7.554024             -2.634037            2.919549
| 68>   H                      7.197122             -0.684707            3.440621
| 69>   H                      5.634631             -1.156529            4.236709
| 70>   H                      7.234480             -1.426352            5.052072
| 71> *
| 72>
| 73>                          ****END OF INPUT****
 Total Charge           Charge          ....    0
 Multiplicity           Mult            ....    1
 Number of Electrons    NEL             ....   36
Dispersion correction           -0.001656159
FINAL SINGLE POINT ENERGY      -231.461541426313
Dispersion correction           -0.000197617
FINAL SINGLE POINT ENERGY      -115.723779202040

CARTESIAN COORDINATES (ANGSTROEM)
---------------------------------
  C      8.386589   -2.071084    0.136548
  O      8.601120   -2.945565    1.138944
  H      8.944620   -3.784595    0.801443
  H      9.232089   -1.678624   -0.281873
  H      7.906528   -2.696329   -0.613378
  H      7.677471   -1.266587    0.351767
  C      6.734664   -1.465832    4.134875
  O      6.850133   -2.723269    3.574663
  H      7.554024   -2.634037    2.919549
  H      7.197122   -0.684707    3.440621
  H      5.634631   -1.156529    4.236709
  H      7.234480   -1.426352    5.052072

 Multiplicity           Mult            ....    1
 Number of Electrons    NEL             ....   18
 Basis Dimension        Dim             ....  172

ORBITAL ENERGIES
----------------

  NO   OCC          E(Eh)            E(eV)
   0   2.0000     -19.231595      -523.3183
   1   2.0000     -10.315593      -280.7015
   2   2.0000      -1.149029       -31.2667
   3   2.0000      -0.787817       -21.4376
   4   2.0000      -0.615101       -16.7378
   5   2.0000      -0.553315       -15.0565
   6   2.0000      -0.526139       -14.3170
   7   2.0000      -0.426607       -11.6086
   8   2.0000      -0.374562       -10.1924
   9   0.0000       0.068936         1.8758
  10   0.0000       0.130155         3.5417
  11   0.0000       0.145720         3.9652
  12   0.0000       0.169332         4.6078
  13   0.0000       0.191844         5.2204

MULLIKEN ATOMIC CHARGES
-----------------------
   0 C :   -0.004034
   1 O :    0.000205
   2 H :   -0.000066
   3 H :   -0.000056
   4 H :    0.000377
   5 H :    0.000261
   6 C :   -0.160955
   7 O :   -0.455776
   8 H :    0.313586
   9 H :    0.090146
  10 H :    0.105108
  11 H :    0.111205
Sum of atomic charges:    0.0000000

LOEWDIN ATOMIC CHARGES
----------------------
   0 C :   -0.003744
   1 O :   -0.012998
   2 H :   -0.000676
   3 H :   -0.000084
   4 H :   -0.000061
   5 H :   -0.000602
   6 C :   -0.413365
   7 O :   -0.049454
   8 H :    0.183690
   9 H :    0.101984
  10 H :    0.111484
  11 H :    0.083826

  Mayer bond orders larger than 0.1
B(  6-C ,  7-O ) :   0.9993 B(  6-C ,  9-H ) :   0.9878 B(  6-C , 10-H ) :   0.9692
B(  6-C , 11-H ) :   0.9777 B(  7-O ,  8-H ) :   0.9055

Dispersion correction           -0.000225845
FINAL SINGLE POINT ENERGY      -115.729816380061

DIPOLE MOMENT
-------------
                                X             Y             Z
Electronic contribution:      0.07301      -1.79914      -0.52238
Nuclear contribution   :      0.34317       2.31545       0.31562
                        -----------------------------------------
Total Dipole Moment    :      0.41618       0.51631      -0.20676
                        -----------------------------------------
Magnitude (a.u.)       :      0.69464
Magnitude (Debye)      :      1.76565

Rotational constants in cm-1:     4.126310     0.866776     0.831627
Rotational constants in MHz : 123703.662408 25985.289231 24931.565189

                             ****ORCA TERMINATED NORMALLY****
TOTAL RUN TIME: 0 days 0 hours 0 minutes 59 seconds 330 msec
