                         Program Version 4.1.2  - RELEASE  -
|  1> #Run DFT-D3 single point of the dimer
|  2> ! wB97X-D3 def2-TZVP TIGHTSCF CHELPG PMODEL PAL8
|  3>
|  4> %base "9-38_DFT_AB"
|  5>
|  6> %scf
|  7> MaxIter 1000
|  8> end
|  9>
| 10> * xyz 0 1
| 11>   C                      9.668153             -8.802298            3.443174
| 12>   O                      9.283030             -9.279826            2.182614
| 13>   H                      8.535800             -9.932465            2.235001
| 14>   H                      10.301862            -9.574787            3.917111
| 15>   H                      10.289359            -7.879110            3.349851
| 16>   H                      8.819729             -8.629750            4.115209
| 17>   C                      8.790420             -6.568742            -0.676198
| 18>   O                      8.358050             -5.239634            -0.880494
| 19>   H                      8.451338             -5.088571            -1.826494
| 20>   H                      8.387147             -6.923997            0.193152
| 21>   H                      8.409573             -7.173554            -1.522094
| 22>   H                      9.828836             -6.676005            -0.611834
| 23> *
| 24>
| 25> #Run DFT-D3 single point of the molecule with dimer basis set
| 26> $new_job
| 27> %base "9-38_DFT_A"
| 28> ! wB97X-D3 def2-TZVP TIGHTSCF CHELPG PMODEL
| 29>
| 30> %scf
| 31> MaxIter 1000
| 32> end
| 33>
| 34> * xyz 0 1
| 35>   C                      9.668153             -8.802298            3.443174
| 36>   O                      9.283030             -9.279826            2.182614
| 37>   H                      8.535800             -9.932465            2.235001
| 38>   H                      10.301862            -9.574787            3.917111
| 39>   H                      10.289359            -7.879110            3.349851
| 40>   H                      8.819729             -8.629750            4.115209
| 41>   C                    : 8.790420             -6.568742            -0.676198
| 42>   O                    : 8.358050             -5.239634            -0.880494
| 43>   H                    : 8.451338             -5.088571            -1.826494
| 44>   H                    : 8.387147             -6.923997            0.193152
| 45>   H                    : 8.409573             -7.173554            -1.522094
| 46>   H                    : 9.828836             -6.676005            -0.611834
| 47> *
| 48>
| 49> #Run DFT-D3 single point of the particle with dimer basis set
| 50> $new_job
| 51> %base "9-38_DFT_B"
| 52> ! wB97X-D3 def2-TZVP TIGHTSCF CHELPG PMODEL
| 53>
| 54> %scf
| 55> MaxIter 1000
| 56> end
| 57>
| 58> * xyz 0 1
| 59>   C                    : 9.668153             -8.802298            3.443174
| 60>   O                    : 9.283030             -9.279826            2.182614
| 61>   H                    : 8.535800             -9.932465            2.235001
| 62>   H                    : 10.301862            -9.574787            3.917111
| 63>   H                    : 10.289359            -7.879110            3.349851
| 64>   H                    : 8.819729             -8.629750            4.115209
| 65>   C                      8.790420             -6.568742            -0.676198
| 66>   O                      8.358050             -5.239634            -0.880494
| 67>   H                      8.451338             -5.088571            -1.826494
| 68>   H                      8.387147             -6.923997            0.193152
| 69>   H                      8.409573             -7.173554            -1.522094
| 70>   H                      9.828836             -6.676005            -0.611834
| 71> *
| 72>
| 73>                          ****END OF INPUT****
 Total Charge           Charge          ....    0
 Multiplicity           Mult            ....    1
 Number of Electrons    NEL             ....   36
Dispersion correction           -0.001071299
FINAL SINGLE POINT ENERGY      -231.466376068235
Dispersion correction           -0.000248151
FINAL SINGLE POINT ENERGY      -115.734007580572

CARTESIAN COORDINATES (ANGSTROEM)
---------------------------------
  C      9.668153   -8.802298    3.443174
  O      9.283030   -9.279826    2.182614
  H      8.535800   -9.932465    2.235001
  H     10.301862   -9.574787    3.917111
  H     10.289359   -7.879110    3.349851
  H      8.819729   -8.629750    4.115209
  C      8.790420   -6.568742   -0.676198
  O      8.358050   -5.239634   -0.880494
  H      8.451338   -5.088571   -1.826494
  H      8.387147   -6.923997    0.193152
  H      8.409573   -7.173554   -1.522094
  H      9.828836   -6.676005   -0.611834

 Multiplicity           Mult            ....    1
 Number of Electrons    NEL             ....   18
 Basis Dimension        Dim             ....  172

ORBITAL ENERGIES
----------------

  NO   OCC          E(Eh)            E(eV)
   0   2.0000     -19.228198      -523.2259
   1   2.0000     -10.300650      -280.2949
   2   2.0000      -1.136712       -30.9315
   3   2.0000      -0.802806       -21.8455
   4   2.0000      -0.609562       -16.5870
   5   2.0000      -0.548096       -14.9145
   6   2.0000      -0.535414       -14.5694
   7   2.0000      -0.436518       -11.8782
   8   2.0000      -0.373748       -10.1702
   9   0.0000       0.082404         2.2423
  10   0.0000       0.114217         3.1080
  11   0.0000       0.150922         4.1068
  12   0.0000       0.166285         4.5248
  13   0.0000       0.192721         5.2442

MULLIKEN ATOMIC CHARGES
-----------------------
   0 C :   -0.000025
   1 O :    0.000009
   2 H :   -0.000044
   3 H :   -0.000003
   4 H :    0.000003
   5 H :   -0.000017
   6 C :   -0.159094
   7 O :   -0.473944
   8 H :    0.314059
   9 H :    0.118231
  10 H :    0.097282
  11 H :    0.103542
Sum of atomic charges:   -0.0000000

LOEWDIN ATOMIC CHARGES
----------------------
   0 C :   -0.000315
   1 O :   -0.000464
   2 H :   -0.000093
   3 H :   -0.000005
   4 H :   -0.000047
   5 H :   -0.000008
   6 C :   -0.369809
   7 O :   -0.077587
   8 H :    0.171251
   9 H :    0.090054
  10 H :    0.101576
  11 H :    0.085447

  Mayer bond orders larger than 0.1
B(  6-C ,  7-O ) :   1.0053 B(  6-C ,  9-H ) :   0.9786 B(  6-C , 10-H ) :   0.9916
B(  6-C , 11-H ) :   0.9710 B(  7-O ,  8-H ) :   0.9028

Dispersion correction           -0.000214214
FINAL SINGLE POINT ENERGY      -115.730869270638

DIPOLE MOMENT
-------------
                                X             Y             Z
Electronic contribution:     -0.51154       1.69895      -0.00499
Nuclear contribution   :      0.73747      -2.14222      -0.48957
                        -----------------------------------------
Total Dipole Moment    :      0.22593      -0.44327      -0.49456
                        -----------------------------------------
Magnitude (a.u.)       :      0.70152
Magnitude (Debye)      :      1.78312

Rotational constants in cm-1:     4.457886     0.847725     0.814400
Rotational constants in MHz : 133644.053722 25414.151591 24415.084157

                             ****ORCA TERMINATED NORMALLY****
TOTAL RUN TIME: 0 days 0 hours 0 minutes 41 seconds 457 msec
