                         Program Version 4.1.2  - RELEASE  -
|  1> #Run DFT-D3 single point of the dimer
|  2> ! wB97X-D3 def2-TZVP TIGHTSCF CHELPG PMODEL PAL8
|  3>
|  4> %base "4-17_DFT_AB"
|  5>
|  6> %scf
|  7> MaxIter 1000
|  8> end
|  9>
| 10> * xyz 0 1
| 11>   C                      -3.440480            1.608124             -5.363870
| 12>   O                      -4.023051            1.698251             -6.686188
| 13>   H                      -4.350094            0.892071             -7.073146
| 14>   H                      -4.299878            1.217766             -4.707092
| 15>   H                      -2.598717            0.960056             -5.139841
| 16>   H                      -3.210669            2.597576             -4.898620
| 17>   C                      -5.626955            5.201464             -5.698041
| 18>   O                      -6.120893            5.607190             -4.461843
| 19>   H                      -7.011624            5.750783             -4.706784
| 20>   H                      -5.858184            5.795319             -6.573045
| 21>   H                      -4.516198            5.276372             -5.727805
| 22>   H                      -5.579296            4.171457             -5.897865
| 23> *
| 24>
| 25> #Run DFT-D3 single point of the molecule with dimer basis set
| 26> $new_job
| 27> %base "4-17_DFT_A"
| 28> ! wB97X-D3 def2-TZVP TIGHTSCF CHELPG PMODEL
| 29>
| 30> %scf
| 31> MaxIter 1000
| 32> end
| 33>
| 34> * xyz 0 1
| 35>   C                      -3.440480            1.608124             -5.363870
| 36>   O                      -4.023051            1.698251             -6.686188
| 37>   H                      -4.350094            0.892071             -7.073146
| 38>   H                      -4.299878            1.217766             -4.707092
| 39>   H                      -2.598717            0.960056             -5.139841
| 40>   H                      -3.210669            2.597576             -4.898620
| 41>   C                    : -5.626955            5.201464             -5.698041
| 42>   O                    : -6.120893            5.607190             -4.461843
| 43>   H                    : -7.011624            5.750783             -4.706784
| 44>   H                    : -5.858184            5.795319             -6.573045
| 45>   H                    : -4.516198            5.276372             -5.727805
| 46>   H                    : -5.579296            4.171457             -5.897865
| 47> *
| 48>
| 49> #Run DFT-D3 single point of the particle with dimer basis set
| 50> $new_job
| 51> %base "4-17_DFT_B"
| 52> ! wB97X-D3 def2-TZVP TIGHTSCF CHELPG PMODEL
| 53>
| 54> %scf
| 55> MaxIter 1000
| 56> end
| 57>
| 58> * xyz 0 1
| 59>   C                    : -3.440480            1.608124             -5.363870
| 60>   O                    : -4.023051            1.698251             -6.686188
| 61>   H                    : -4.350094            0.892071             -7.073146
| 62>   H                    : -4.299878            1.217766             -4.707092
| 63>   H                    : -2.598717            0.960056             -5.139841
| 64>   H                    : -3.210669            2.597576             -4.898620
| 65>   C                      -5.626955            5.201464             -5.698041
| 66>   O                      -6.120893            5.607190             -4.461843
| 67>   H                      -7.011624            5.750783             -4.706784
| 68>   H                      -5.858184            5.795319             -6.573045
| 69>   H                      -4.516198            5.276372             -5.727805
| 70>   H                      -5.579296            4.171457             -5.897865
| 71> *
| 72>
| 73>                          ****END OF INPUT****
 Total Charge           Charge          ....    0
 Multiplicity           Mult            ....    1
 Number of Electrons    NEL             ....   36
Dispersion correction           -0.001517418
FINAL SINGLE POINT ENERGY      -231.446358417325
Dispersion correction           -0.000299515
FINAL SINGLE POINT ENERGY      -115.724380279093

CARTESIAN COORDINATES (ANGSTROEM)
---------------------------------
  C     -3.440480    1.608124   -5.363870
  O     -4.023051    1.698251   -6.686188
  H     -4.350094    0.892071   -7.073146
  H     -4.299878    1.217766   -4.707092
  H     -2.598717    0.960056   -5.139841
  H     -3.210669    2.597576   -4.898620
  C     -5.626955    5.201464   -5.698041
  O     -6.120893    5.607190   -4.461843
  H     -7.011624    5.750783   -4.706784
  H     -5.858184    5.795319   -6.573045
  H     -4.516198    5.276372   -5.727805
  H     -5.579296    4.171457   -5.897865

 Multiplicity           Mult            ....    1
 Number of Electrons    NEL             ....   18
 Basis Dimension        Dim             ....  172

ORBITAL ENERGIES
----------------

  NO   OCC          E(Eh)            E(eV)
   0   2.0000     -19.238164      -523.4971
   1   2.0000     -10.306263      -280.4477
   2   2.0000      -1.158312       -31.5193
   3   2.0000      -0.803671       -21.8690
   4   2.0000      -0.618156       -16.8209
   5   2.0000      -0.555755       -15.1229
   6   2.0000      -0.528649       -14.3853
   7   2.0000      -0.432699       -11.7743
   8   2.0000      -0.378514       -10.2999
   9   0.0000       0.082365         2.2413
  10   0.0000       0.122745         3.3401
  11   0.0000       0.152666         4.1542
  12   0.0000       0.159173         4.3313
  13   0.0000       0.189466         5.1556

MULLIKEN ATOMIC CHARGES
-----------------------
   0 C :    0.000623
   1 O :   -0.000208
   2 H :   -0.000079
   3 H :   -0.000156
   4 H :    0.000034
   5 H :   -0.000090
   6 C :   -0.207339
   7 O :   -0.439312
   8 H :    0.315246
   9 H :    0.115928
  10 H :    0.104658
  11 H :    0.110694
Sum of atomic charges:   -0.0000000

LOEWDIN ATOMIC CHARGES
----------------------
   0 C :   -0.001795
   1 O :   -0.001050
   2 H :   -0.000113
   3 H :   -0.000122
   4 H :   -0.000017
   5 H :   -0.000707
   6 C :   -0.427497
   7 O :   -0.034686
   8 H :    0.162883
   9 H :    0.097718
  10 H :    0.115401
  11 H :    0.089984

  Mayer bond orders larger than 0.1
B(  6-C ,  7-O ) :   1.0268 B(  6-C ,  9-H ) :   0.9749 B(  6-C , 10-H ) :   0.9779
B(  6-C , 11-H ) :   0.9679 B(  7-O ,  8-H ) :   0.9069

Dispersion correction           -0.000240789
FINAL SINGLE POINT ENERGY      -115.719811617522

DIPOLE MOMENT
-------------
                                X             Y             Z
Electronic contribution:     -0.88015       0.54934       1.79727
Nuclear contribution   :      0.54689      -0.60308      -2.40010
                        -----------------------------------------
Total Dipole Moment    :     -0.33326      -0.05374      -0.60283
                        -----------------------------------------
Magnitude (a.u.)       :      0.69090
Magnitude (Debye)      :      1.75614

Rotational constants in cm-1:     4.648586     0.847222     0.814249
Rotational constants in MHz : 139361.102465 25399.084617 24410.564932

                             ****ORCA TERMINATED NORMALLY****
TOTAL RUN TIME: 0 days 0 hours 1 minutes 28 seconds 882 msec
