                         Program Version 4.1.2  - RELEASE  -
|  1> #Run DFT-D3 single point of the dimer
|  2> ! wB97X-D3 def2-TZVP TIGHTSCF CHELPG PMODEL PAL8
|  3>
|  4> %base "19-38_DFT_AB"
|  5>
|  6> %scf
|  7> MaxIter 1000
|  8> end
|  9>
| 10> * xyz 0 1
| 11>   C                      7.257563             6.735818             4.442851
| 12>   O                      8.386543             7.556154             4.548185
| 13>   H                      9.044606             7.039462             5.018656
| 14>   H                      7.278685             6.428361             3.430371
| 15>   H                      7.463774             5.931356             5.183014
| 16>   H                      6.305239             7.244127             4.579032
| 17>   C                      4.406061             9.003634             4.088747
| 18>   O                      4.939479             8.666428             2.818712
| 19>   H                      4.198800             8.535025             2.226766
| 20>   H                      3.780832             8.216946             4.530347
| 21>   H                      5.157091             9.103917             4.964243
| 22>   H                      3.790676             9.928209             4.043853
| 23> *
| 24>
| 25> #Run DFT-D3 single point of the molecule with dimer basis set
| 26> $new_job
| 27> %base "19-38_DFT_A"
| 28> ! wB97X-D3 def2-TZVP TIGHTSCF CHELPG PMODEL
| 29>
| 30> %scf
| 31> MaxIter 1000
| 32> end
| 33>
| 34> * xyz 0 1
| 35>   C                      7.257563             6.735818             4.442851
| 36>   O                      8.386543             7.556154             4.548185
| 37>   H                      9.044606             7.039462             5.018656
| 38>   H                      7.278685             6.428361             3.430371
| 39>   H                      7.463774             5.931356             5.183014
| 40>   H                      6.305239             7.244127             4.579032
| 41>   C                    : 4.406061             9.003634             4.088747
| 42>   O                    : 4.939479             8.666428             2.818712
| 43>   H                    : 4.198800             8.535025             2.226766
| 44>   H                    : 3.780832             8.216946             4.530347
| 45>   H                    : 5.157091             9.103917             4.964243
| 46>   H                    : 3.790676             9.928209             4.043853
| 47> *
| 48>
| 49> #Run DFT-D3 single point of the particle with dimer basis set
| 50> $new_job
| 51> %base "19-38_DFT_B"
| 52> ! wB97X-D3 def2-TZVP TIGHTSCF CHELPG PMODEL
| 53>
| 54> %scf
| 55> MaxIter 1000
| 56> end
| 57>
| 58> * xyz 0 1
| 59>   C                    : 7.257563             6.735818             4.442851
| 60>   O                    : 8.386543             7.556154             4.548185
| 61>   H                    : 9.044606             7.039462             5.018656
| 62>   H                    : 7.278685             6.428361             3.430371
| 63>   H                    : 7.463774             5.931356             5.183014
| 64>   H                    : 6.305239             7.244127             4.579032
| 65>   C                      4.406061             9.003634             4.088747
| 66>   O                      4.939479             8.666428             2.818712
| 67>   H                      4.198800             8.535025             2.226766
| 68>   H                      3.780832             8.216946             4.530347
| 69>   H                      5.157091             9.103917             4.964243
| 70>   H                      3.790676             9.928209             4.043853
| 71> *
| 72>
| 73>                          ****END OF INPUT****
 Total Charge           Charge          ....    0
 Multiplicity           Mult            ....    1
 Number of Electrons    NEL             ....   36
Dispersion correction           -0.001775177
FINAL SINGLE POINT ENERGY      -231.456847618050
Dispersion correction           -0.000206596
FINAL SINGLE POINT ENERGY      -115.726486623939

CARTESIAN COORDINATES (ANGSTROEM)
---------------------------------
  C      7.257563    6.735818    4.442851
  O      8.386543    7.556154    4.548185
  H      9.044606    7.039462    5.018656
  H      7.278685    6.428361    3.430371
  H      7.463774    5.931356    5.183014
  H      6.305239    7.244127    4.579032
  C      4.406061    9.003634    4.088747
  O      4.939479    8.666428    2.818712
  H      4.198800    8.535025    2.226766
  H      3.780832    8.216946    4.530347
  H      5.157091    9.103917    4.964243
  H      3.790676    9.928209    4.043853

 Multiplicity           Mult            ....    1
 Number of Electrons    NEL             ....   18
 Basis Dimension        Dim             ....  172

ORBITAL ENERGIES
----------------

  NO   OCC          E(Eh)            E(eV)
   0   2.0000     -19.235331      -523.4200
   1   2.0000     -10.323124      -280.9065
   2   2.0000      -1.138674       -30.9849
   3   2.0000      -0.791772       -21.5452
   4   2.0000      -0.612037       -16.6544
   5   2.0000      -0.543066       -14.7776
   6   2.0000      -0.521079       -14.1793
   7   2.0000      -0.428216       -11.6523
   8   2.0000      -0.376275       -10.2390
   9   0.0000       0.096092         2.6148
  10   0.0000       0.122929         3.3451
  11   0.0000       0.144956         3.9445
  12   0.0000       0.181649         4.9429
  13   0.0000       0.192118         5.2278

MULLIKEN ATOMIC CHARGES
-----------------------
   0 C :   -0.003828
   1 O :   -0.000279
   2 H :   -0.000047
   3 H :   -0.002757
   4 H :    0.000318
   5 H :    0.008926
   6 C :   -0.204357
   7 O :   -0.462687
   8 H :    0.316887
   9 H :    0.111059
  10 H :    0.119827
  11 H :    0.116938
Sum of atomic charges:   -0.0000000

LOEWDIN ATOMIC CHARGES
----------------------
   0 C :   -0.008073
   1 O :   -0.000031
   2 H :   -0.000014
   3 H :   -0.001521
   4 H :   -0.000029
   5 H :   -0.008827
   6 C :   -0.400092
   7 O :   -0.067685
   8 H :    0.169866
   9 H :    0.094811
  10 H :    0.123572
  11 H :    0.098024

  Mayer bond orders larger than 0.1
B(  6-C ,  7-O ) :   1.0040 B(  6-C ,  9-H ) :   0.9725 B(  6-C , 10-H ) :   0.9709
B(  6-C , 11-H ) :   0.9714 B(  7-O ,  8-H ) :   0.8959

Dispersion correction           -0.000264831
FINAL SINGLE POINT ENERGY      -115.730044622913

DIPOLE MOMENT
-------------
                                X             Y             Z
Electronic contribution:      0.87964      -0.40643      -1.75656
Nuclear contribution   :     -1.56673       0.44047       1.88694
                        -----------------------------------------
Total Dipole Moment    :     -0.68709       0.03404       0.13038
                        -----------------------------------------
Magnitude (a.u.)       :      0.70018
Magnitude (Debye)      :      1.77971

Rotational constants in cm-1:     4.304823     0.808405     0.779662
Rotational constants in MHz : 129055.350028 24235.378898 23373.690310

                             ****ORCA TERMINATED NORMALLY****
TOTAL RUN TIME: 0 days 0 hours 0 minutes 54 seconds 154 msec
