                         Program Version 4.1.2  - RELEASE  -
|  1> #Run DFT-D3 single point of the dimer
|  2> ! wB97X-D3 def2-TZVP TIGHTSCF CHELPG PMODEL PAL8
|  3>
|  4> %base "4-78_DFT_AB"
|  5>
|  6> %scf
|  7> MaxIter 1000
|  8> end
|  9>
| 10> * xyz 0 1
| 11>   C                      10.523130            -2.639775            4.449714
| 12>   O                      9.637086             -1.623541            4.944725
| 13>   H                      10.235835            -1.029594            5.432499
| 14>   H                      10.169014            -3.207924            3.581402
| 15>   H                      11.577218            -2.300368            4.261550
| 16>   H                      10.573071            -3.466301            5.153517
| 17>   C                      8.138163             2.013779             8.440012
| 18>   O                      8.449880             2.296050             7.073773
| 19>   H                      8.958610             1.573154             6.754095
| 20>   H                      7.680784             2.922407             8.860548
| 21>   H                      7.458505             1.109173             8.484702
| 22>   H                      9.035666             1.771950             8.988343
| 23> *
| 24>
| 25> #Run DFT-D3 single point of the molecule with dimer basis set
| 26> $new_job
| 27> %base "4-78_DFT_A"
| 28> ! wB97X-D3 def2-TZVP TIGHTSCF CHELPG PMODEL
| 29>
| 30> %scf
| 31> MaxIter 1000
| 32> end
| 33>
| 34> * xyz 0 1
| 35>   C                      10.523130            -2.639775            4.449714
| 36>   O                      9.637086             -1.623541            4.944725
| 37>   H                      10.235835            -1.029594            5.432499
| 38>   H                      10.169014            -3.207924            3.581402
| 39>   H                      11.577218            -2.300368            4.261550
| 40>   H                      10.573071            -3.466301            5.153517
| 41>   C                    : 8.138163             2.013779             8.440012
| 42>   O                    : 8.449880             2.296050             7.073773
| 43>   H                    : 8.958610             1.573154             6.754095
| 44>   H                    : 7.680784             2.922407             8.860548
| 45>   H                    : 7.458505             1.109173             8.484702
| 46>   H                    : 9.035666             1.771950             8.988343
| 47> *
| 48>
| 49> #Run DFT-D3 single point of the particle with dimer basis set
| 50> $new_job
| 51> %base "4-78_DFT_B"
| 52> ! wB97X-D3 def2-TZVP TIGHTSCF CHELPG PMODEL
| 53>
| 54> %scf
| 55> MaxIter 1000
| 56> end
| 57>
| 58> * xyz 0 1
| 59>   C                    : 10.523130            -2.639775            4.449714
| 60>   O                    : 9.637086             -1.623541            4.944725
| 61>   H                    : 10.235835            -1.029594            5.432499
| 62>   H                    : 10.169014            -3.207924            3.581402
| 63>   H                    : 11.577218            -2.300368            4.261550
| 64>   H                    : 10.573071            -3.466301            5.153517
| 65>   C                      8.138163             2.013779             8.440012
| 66>   O                      8.449880             2.296050             7.073773
| 67>   H                      8.958610             1.573154             6.754095
| 68>   H                      7.680784             2.922407             8.860548
| 69>   H                      7.458505             1.109173             8.484702
| 70>   H                      9.035666             1.771950             8.988343
| 71> *
| 72>
| 73>                          ****END OF INPUT****
 Total Charge           Charge          ....    0
 Multiplicity           Mult            ....    1
 Number of Electrons    NEL             ....   36
Dispersion correction           -0.000783125
FINAL SINGLE POINT ENERGY      -231.464764856670
Dispersion correction           -0.000261416
FINAL SINGLE POINT ENERGY      -115.729942044095

CARTESIAN COORDINATES (ANGSTROEM)
---------------------------------
  C     10.523130   -2.639775    4.449714
  O      9.637086   -1.623541    4.944725
  H     10.235835   -1.029594    5.432499
  H     10.169014   -3.207924    3.581402
  H     11.577218   -2.300368    4.261550
  H     10.573071   -3.466301    5.153517
  C      8.138163    2.013779    8.440012
  O      8.449880    2.296050    7.073773
  H      8.958610    1.573154    6.754095
  H      7.680784    2.922407    8.860548
  H      7.458505    1.109173    8.484702
  H      9.035666    1.771950    8.988343

 Multiplicity           Mult            ....    1
 Number of Electrons    NEL             ....   18
 Basis Dimension        Dim             ....  172

ORBITAL ENERGIES
----------------

  NO   OCC          E(Eh)            E(eV)
   0   2.0000     -19.225946      -523.1646
   1   2.0000     -10.317704      -280.7590
   2   2.0000      -1.135356       -30.8946
   3   2.0000      -0.793717       -21.5981
   4   2.0000      -0.610055       -16.6004
   5   2.0000      -0.538469       -14.6525
   6   2.0000      -0.523833       -14.2542
   7   2.0000      -0.438587       -11.9346
   8   2.0000      -0.372104       -10.1255
   9   0.0000       0.077657         2.1131
  10   0.0000       0.110209         2.9989
  11   0.0000       0.151107         4.1118
  12   0.0000       0.179787         4.8923
  13   0.0000       0.192715         5.2440

MULLIKEN ATOMIC CHARGES
-----------------------
   0 C :    0.000021
   1 O :    0.000000
   2 H :   -0.000357
   3 H :    0.000001
   4 H :   -0.000001
   5 H :   -0.000001
   6 C :   -0.163982
   7 O :   -0.473218
   8 H :    0.308508
   9 H :    0.123578
  10 H :    0.099201
  11 H :    0.106250
Sum of atomic charges:    0.0000000

LOEWDIN ATOMIC CHARGES
----------------------
   0 C :   -0.000007
   1 O :   -0.000067
   2 H :   -0.000565
   3 H :   -0.000001
   4 H :   -0.000001
   5 H :   -0.000000
   6 C :   -0.372697
   7 O :   -0.082264
   8 H :    0.152503
   9 H :    0.111291
  10 H :    0.101089
  11 H :    0.090718

  Mayer bond orders larger than 0.1
B(  6-C ,  7-O ) :   0.9896 B(  6-C ,  9-H ) :   0.9731 B(  6-C , 10-H ) :   0.9750
B(  6-C , 11-H ) :   0.9761 B(  7-O ,  8-H ) :   0.9075

Dispersion correction           -0.000231342
FINAL SINGLE POINT ENERGY      -115.735217198299

DIPOLE MOMENT
-------------
                                X             Y             Z
Electronic contribution:      0.32674       0.52139      -1.64661
Nuclear contribution   :     -0.10563      -1.08290       1.99881
                        -----------------------------------------
Total Dipole Moment    :      0.22111      -0.56151       0.35220
                        -----------------------------------------
Magnitude (a.u.)       :      0.69873
Magnitude (Debye)      :      1.77604

Rotational constants in cm-1:     4.160589     0.826118     0.794158
Rotational constants in MHz : 124731.324227 24766.396054 23808.266008

                             ****ORCA TERMINATED NORMALLY****
TOTAL RUN TIME: 0 days 0 hours 1 minutes 27 seconds 208 msec
