                         Program Version 4.1.2  - RELEASE  -
|  1> #Run DFT-D3 single point of the dimer
|  2> ! wB97X-D3 def2-TZVP TIGHTSCF CHELPG PMODEL PAL8
|  3>
|  4> %base "3-122_DFT_AB"
|  5>
|  6> %scf
|  7> MaxIter 1000
|  8> end
|  9>
| 10> * xyz 0 1
| 11>   C                      8.410197             3.010015             -0.062294
| 12>   O                      8.200692             3.657938             -1.307122
| 13>   H                      9.016419             3.833738             -1.740553
| 14>   H                      7.517326             2.979493             0.495077
| 15>   H                      8.723145             1.926999             -0.151185
| 16>   H                      9.352263             3.358656             0.548165
| 17>   C                      7.578111             5.735210             1.799558
| 18>   O                      8.812226             5.571385             1.140697
| 19>   H                      8.660273             5.853221             0.221928
| 20>   H                      7.820925             6.205367             2.736686
| 21>   H                      6.831844             6.324698             1.321623
| 22>   H                      7.178030             4.767879             1.976040
| 23> *
| 24>
| 25> #Run DFT-D3 single point of the molecule with dimer basis set
| 26> $new_job
| 27> %base "3-122_DFT_A"
| 28> ! wB97X-D3 def2-TZVP TIGHTSCF CHELPG PMODEL
| 29>
| 30> %scf
| 31> MaxIter 1000
| 32> end
| 33>
| 34> * xyz 0 1
| 35>   C                      8.410197             3.010015             -0.062294
| 36>   O                      8.200692             3.657938             -1.307122
| 37>   H                      9.016419             3.833738             -1.740553
| 38>   H                      7.517326             2.979493             0.495077
| 39>   H                      8.723145             1.926999             -0.151185
| 40>   H                      9.352263             3.358656             0.548165
| 41>   C                    : 7.578111             5.735210             1.799558
| 42>   O                    : 8.812226             5.571385             1.140697
| 43>   H                    : 8.660273             5.853221             0.221928
| 44>   H                    : 7.820925             6.205367             2.736686
| 45>   H                    : 6.831844             6.324698             1.321623
| 46>   H                    : 7.178030             4.767879             1.976040
| 47> *
| 48>
| 49> #Run DFT-D3 single point of the particle with dimer basis set
| 50> $new_job
| 51> %base "3-122_DFT_B"
| 52> ! wB97X-D3 def2-TZVP TIGHTSCF CHELPG PMODEL
| 53>
| 54> %scf
| 55> MaxIter 1000
| 56> end
| 57>
| 58> * xyz 0 1
| 59>   C                    : 8.410197             3.010015             -0.062294
| 60>   O                    : 8.200692             3.657938             -1.307122
| 61>   H                    : 9.016419             3.833738             -1.740553
| 62>   H                    : 7.517326             2.979493             0.495077
| 63>   H                    : 8.723145             1.926999             -0.151185
| 64>   H                    : 9.352263             3.358656             0.548165
| 65>   C                      7.578111             5.735210             1.799558
| 66>   O                      8.812226             5.571385             1.140697
| 67>   H                      8.660273             5.853221             0.221928
| 68>   H                      7.820925             6.205367             2.736686
| 69>   H                      6.831844             6.324698             1.321623
| 70>   H                      7.178030             4.767879             1.976040
| 71> *
| 72>
| 73>                          ****END OF INPUT****
 Total Charge           Charge          ....    0
 Multiplicity           Mult            ....    1
 Number of Electrons    NEL             ....   36
Dispersion correction           -0.002392833
FINAL SINGLE POINT ENERGY      -231.460152634191
Dispersion correction           -0.000281885
FINAL SINGLE POINT ENERGY      -115.727329717782

CARTESIAN COORDINATES (ANGSTROEM)
---------------------------------
  C      8.410197    3.010015   -0.062294
  O      8.200692    3.657938   -1.307122
  H      9.016419    3.833738   -1.740553
  H      7.517326    2.979493    0.495077
  H      8.723145    1.926999   -0.151185
  H      9.352263    3.358656    0.548165
  C      7.578111    5.735210    1.799558
  O      8.812226    5.571385    1.140697
  H      8.660273    5.853221    0.221928
  H      7.820925    6.205367    2.736686
  H      6.831844    6.324698    1.321623
  H      7.178030    4.767879    1.976040

 Multiplicity           Mult            ....    1
 Number of Electrons    NEL             ....   18
 Basis Dimension        Dim             ....  172

ORBITAL ENERGIES
----------------

  NO   OCC          E(Eh)            E(eV)
   0   2.0000     -19.231121      -523.3054
   1   2.0000     -10.302459      -280.3442
   2   2.0000      -1.136858       -30.9355
   3   2.0000      -0.799074       -21.7439
   4   2.0000      -0.615341       -16.7443
   5   2.0000      -0.548382       -14.9222
   6   2.0000      -0.520798       -14.1716
   7   2.0000      -0.442406       -12.0385
   8   2.0000      -0.371979       -10.1221
   9   0.0000       0.086479         2.3532
  10   0.0000       0.135856         3.6968
  11   0.0000       0.147930         4.0254
  12   0.0000       0.178787         4.8650
  13   0.0000       0.197386         5.3711

MULLIKEN ATOMIC CHARGES
-----------------------
   0 C :   -0.008958
   1 O :   -0.002253
   2 H :   -0.000360
   3 H :    0.000214
   4 H :   -0.000793
   5 H :   -0.004617
   6 C :   -0.167173
   7 O :   -0.463891
   8 H :    0.316085
   9 H :    0.113679
  10 H :    0.110874
  11 H :    0.107194
Sum of atomic charges:   -0.0000000

LOEWDIN ATOMIC CHARGES
----------------------
   0 C :   -0.029426
   1 O :   -0.003750
   2 H :   -0.001168
   3 H :   -0.003710
   4 H :   -0.000331
   5 H :   -0.015442
   6 C :   -0.376623
   7 O :   -0.041388
   8 H :    0.180345
   9 H :    0.103682
  10 H :    0.091952
  11 H :    0.095859

  Mayer bond orders larger than 0.1
B(  6-C ,  7-O ) :   0.9978 B(  6-C ,  9-H ) :   0.9815 B(  6-C , 10-H ) :   0.9762
B(  6-C , 11-H ) :   0.9824 B(  7-O ,  8-H ) :   0.8996

Dispersion correction           -0.000230381
FINAL SINGLE POINT ENERGY      -115.733081396650

DIPOLE MOMENT
-------------
                                X             Y             Z
Electronic contribution:      1.56694      -0.20916      -0.77409
Nuclear contribution   :     -2.15690       0.47815       0.45760
                        -----------------------------------------
Total Dipole Moment    :     -0.58996       0.26899      -0.31649
                        -----------------------------------------
Magnitude (a.u.)       :      0.72151
Magnitude (Debye)      :      1.83393

Rotational constants in cm-1:     4.401056     0.846994     0.815788
Rotational constants in MHz : 131940.343681 25392.244494 24456.713187

                             ****ORCA TERMINATED NORMALLY****
TOTAL RUN TIME: 0 days 0 hours 6 minutes 25 seconds 69 msec
