                         Program Version 4.1.2  - RELEASE  -
|  1> #Run DFT-D3 single point of the dimer
|  2> ! wB97X-D3 def2-TZVP TIGHTSCF CHELPG PMODEL PAL8
|  3>
|  4> %base "16-114_DFT_AB"
|  5>
|  6> %scf
|  7> MaxIter 1000
|  8> end
|  9>
| 10> * xyz 0 1
| 11>   C                      -6.170275            7.304904             2.945659
| 12>   O                      -6.004982            5.919241             2.961373
| 13>   H                      -5.177506            5.678358             2.626186
| 14>   H                      -5.361011            7.815695             3.442207
| 15>   H                      -6.204885            7.631160             1.917815
| 16>   H                      -7.083981            7.553979             3.478656
| 17>   C                      -2.267208            6.279106             2.973919
| 18>   O                      -3.400082            5.746120             2.323222
| 19>   H                      -3.074221            5.322488             1.486952
| 20>   H                      -1.617773            5.410425             3.049809
| 21>   H                      -1.855328            7.068574             2.415175
| 22>   H                      -2.500357            6.573701             4.022513
| 23> *
| 24>
| 25> #Run DFT-D3 single point of the molecule with dimer basis set
| 26> $new_job
| 27> %base "16-114_DFT_A"
| 28> ! wB97X-D3 def2-TZVP TIGHTSCF CHELPG PMODEL
| 29>
| 30> %scf
| 31> MaxIter 1000
| 32> end
| 33>
| 34> * xyz 0 1
| 35>   C                      -6.170275            7.304904             2.945659
| 36>   O                      -6.004982            5.919241             2.961373
| 37>   H                      -5.177506            5.678358             2.626186
| 38>   H                      -5.361011            7.815695             3.442207
| 39>   H                      -6.204885            7.631160             1.917815
| 40>   H                      -7.083981            7.553979             3.478656
| 41>   C                    : -2.267208            6.279106             2.973919
| 42>   O                    : -3.400082            5.746120             2.323222
| 43>   H                    : -3.074221            5.322488             1.486952
| 44>   H                    : -1.617773            5.410425             3.049809
| 45>   H                    : -1.855328            7.068574             2.415175
| 46>   H                    : -2.500357            6.573701             4.022513
| 47> *
| 48>
| 49> #Run DFT-D3 single point of the particle with dimer basis set
| 50> $new_job
| 51> %base "16-114_DFT_B"
| 52> ! wB97X-D3 def2-TZVP TIGHTSCF CHELPG PMODEL
| 53>
| 54> %scf
| 55> MaxIter 1000
| 56> end
| 57>
| 58> * xyz 0 1
| 59>   C                    : -6.170275            7.304904             2.945659
| 60>   O                    : -6.004982            5.919241             2.961373
| 61>   H                    : -5.177506            5.678358             2.626186
| 62>   H                    : -5.361011            7.815695             3.442207
| 63>   H                    : -6.204885            7.631160             1.917815
| 64>   H                    : -7.083981            7.553979             3.478656
| 65>   C                      -2.267208            6.279106             2.973919
| 66>   O                      -3.400082            5.746120             2.323222
| 67>   H                      -3.074221            5.322488             1.486952
| 68>   H                      -1.617773            5.410425             3.049809
| 69>   H                      -1.855328            7.068574             2.415175
| 70>   H                      -2.500357            6.573701             4.022513
| 71> *
| 72>
| 73>                          ****END OF INPUT****
 Total Charge           Charge          ....    0
 Multiplicity           Mult            ....    1
 Number of Electrons    NEL             ....   36
Dispersion correction           -0.001919079
FINAL SINGLE POINT ENERGY      -231.472545161315
Dispersion correction           -0.000219311
FINAL SINGLE POINT ENERGY      -115.735488724121

CARTESIAN COORDINATES (ANGSTROEM)
---------------------------------
  C     -6.170275    7.304904    2.945659
  O     -6.004982    5.919241    2.961373
  H     -5.177506    5.678358    2.626186
  H     -5.361011    7.815695    3.442207
  H     -6.204885    7.631160    1.917815
  H     -7.083981    7.553979    3.478656
  C     -2.267208    6.279106    2.973919
  O     -3.400082    5.746120    2.323222
  H     -3.074221    5.322488    1.486952
  H     -1.617773    5.410425    3.049809
  H     -1.855328    7.068574    2.415175
  H     -2.500357    6.573701    4.022513

 Multiplicity           Mult            ....    1
 Number of Electrons    NEL             ....   18
 Basis Dimension        Dim             ....  172

ORBITAL ENERGIES
----------------

  NO   OCC          E(Eh)            E(eV)
   0   2.0000     -19.228569      -523.2360
   1   2.0000     -10.309351      -280.5317
   2   2.0000      -1.131244       -30.7827
   3   2.0000      -0.791711       -21.5435
   4   2.0000      -0.603242       -16.4151
   5   2.0000      -0.556842       -15.1524
   6   2.0000      -0.527339       -14.3496
   7   2.0000      -0.426734       -11.6120
   8   2.0000      -0.370680       -10.0867
   9   0.0000       0.097725         2.6592
  10   0.0000       0.126556         3.4438
  11   0.0000       0.153955         4.1893
  12   0.0000       0.193422         5.2633
  13   0.0000       0.203123         5.5273

MULLIKEN ATOMIC CHARGES
-----------------------
   0 C :    0.003011
   1 O :    0.001337
   2 H :   -0.010824
   3 H :   -0.001770
   4 H :   -0.002556
   5 H :   -0.000415
   6 C :   -0.152504
   7 O :   -0.480284
   8 H :    0.316490
   9 H :    0.103409
  10 H :    0.107823
  11 H :    0.116284
Sum of atomic charges:   -0.0000000

LOEWDIN ATOMIC CHARGES
----------------------
   0 C :   -0.008670
   1 O :   -0.009373
   2 H :   -0.056047
   3 H :   -0.001199
   4 H :   -0.000954
   5 H :   -0.000152
   6 C :   -0.378238
   7 O :   -0.033245
   8 H :    0.188667
   9 H :    0.099032
  10 H :    0.086517
  11 H :    0.113662

  Mayer bond orders larger than 0.1
B(  6-C ,  7-O ) :   0.9716 B(  6-C ,  9-H ) :   0.9902 B(  6-C , 10-H ) :   0.9710
B(  6-C , 11-H ) :   0.9742 B(  7-O ,  8-H ) :   0.8912

Dispersion correction           -0.000208456
FINAL SINGLE POINT ENERGY      -115.730384288674

DIPOLE MOMENT
-------------
                                X             Y             Z
Electronic contribution:     -1.46115      -0.44210      -0.70774
Nuclear contribution   :      2.13170       0.38719       0.45935
                        -----------------------------------------
Total Dipole Moment    :      0.67055      -0.05491      -0.24838
                        -----------------------------------------
Magnitude (a.u.)       :      0.71718
Magnitude (Debye)      :      1.82293

Rotational constants in cm-1:     4.206711     0.846573     0.815925
Rotational constants in MHz : 126114.015221 25379.610499 24460.805760

                             ****ORCA TERMINATED NORMALLY****
TOTAL RUN TIME: 0 days 0 hours 0 minutes 56 seconds 239 msec
