                         Program Version 4.1.2  - RELEASE  -
|  1> #Run DFT-D3 single point of the dimer
|  2> ! wB97X-D3 def2-TZVP TIGHTSCF CHELPG PMODEL PAL8
|  3>
|  4> %base "7-170_DFT_AB"
|  5>
|  6> %scf
|  7> MaxIter 1000
|  8> end
|  9>
| 10> * xyz 0 1
| 11>   C                      5.394271             -7.391507            6.068928
| 12>   O                      6.338932             -6.613026            5.334504
| 13>   H                      5.890581             -5.838206            4.986211
| 14>   H                      5.228551             -7.017428            7.094204
| 15>   H                      4.454310             -7.434298            5.467661
| 16>   H                      5.557189             -8.465244            6.210366
| 17>   C                      7.788554             -4.199389            3.523042
| 18>   O                      7.110312             -3.736970            4.686271
| 19>   H                      7.677281             -3.734452            5.428922
| 20>   H                      8.106648             -3.425837            2.875663
| 21>   H                      8.648913             -4.875439            3.708595
| 22>   H                      7.091599             -4.839618            2.976743
| 23> *
| 24>
| 25> #Run DFT-D3 single point of the molecule with dimer basis set
| 26> $new_job
| 27> %base "7-170_DFT_A"
| 28> ! wB97X-D3 def2-TZVP TIGHTSCF CHELPG PMODEL
| 29>
| 30> %scf
| 31> MaxIter 1000
| 32> end
| 33>
| 34> * xyz 0 1
| 35>   C                      5.394271             -7.391507            6.068928
| 36>   O                      6.338932             -6.613026            5.334504
| 37>   H                      5.890581             -5.838206            4.986211
| 38>   H                      5.228551             -7.017428            7.094204
| 39>   H                      4.454310             -7.434298            5.467661
| 40>   H                      5.557189             -8.465244            6.210366
| 41>   C                    : 7.788554             -4.199389            3.523042
| 42>   O                    : 7.110312             -3.736970            4.686271
| 43>   H                    : 7.677281             -3.734452            5.428922
| 44>   H                    : 8.106648             -3.425837            2.875663
| 45>   H                    : 8.648913             -4.875439            3.708595
| 46>   H                    : 7.091599             -4.839618            2.976743
| 47> *
| 48>
| 49> #Run DFT-D3 single point of the particle with dimer basis set
| 50> $new_job
| 51> %base "7-170_DFT_B"
| 52> ! wB97X-D3 def2-TZVP TIGHTSCF CHELPG PMODEL
| 53>
| 54> %scf
| 55> MaxIter 1000
| 56> end
| 57>
| 58> * xyz 0 1
| 59>   C                    : 5.394271             -7.391507            6.068928
| 60>   O                    : 6.338932             -6.613026            5.334504
| 61>   H                    : 5.890581             -5.838206            4.986211
| 62>   H                    : 5.228551             -7.017428            7.094204
| 63>   H                    : 4.454310             -7.434298            5.467661
| 64>   H                    : 5.557189             -8.465244            6.210366
| 65>   C                      7.788554             -4.199389            3.523042
| 66>   O                      7.110312             -3.736970            4.686271
| 67>   H                      7.677281             -3.734452            5.428922
| 68>   H                      8.106648             -3.425837            2.875663
| 69>   H                      8.648913             -4.875439            3.708595
| 70>   H                      7.091599             -4.839618            2.976743
| 71> *
| 72>
| 73>                          ****END OF INPUT****
 Total Charge           Charge          ....    0
 Multiplicity           Mult            ....    1
 Number of Electrons    NEL             ....   36
Dispersion correction           -0.001779903
FINAL SINGLE POINT ENERGY      -231.468759801130
Dispersion correction           -0.000262646
FINAL SINGLE POINT ENERGY      -115.729500543259

CARTESIAN COORDINATES (ANGSTROEM)
---------------------------------
  C      5.394271   -7.391507    6.068928
  O      6.338932   -6.613026    5.334504
  H      5.890581   -5.838206    4.986211
  H      5.228551   -7.017428    7.094204
  H      4.454310   -7.434298    5.467661
  H      5.557189   -8.465244    6.210366
  C      7.788554   -4.199389    3.523042
  O      7.110312   -3.736970    4.686271
  H      7.677281   -3.734452    5.428922
  H      8.106648   -3.425837    2.875663
  H      8.648913   -4.875439    3.708595
  H      7.091599   -4.839618    2.976743

 Multiplicity           Mult            ....    1
 Number of Electrons    NEL             ....   18
 Basis Dimension        Dim             ....  172

ORBITAL ENERGIES
----------------

  NO   OCC          E(Eh)            E(eV)
   0   2.0000     -19.228771      -523.2415
   1   2.0000     -10.311704      -280.5957
   2   2.0000      -1.136940       -30.9377
   3   2.0000      -0.802899       -21.8480
   4   2.0000      -0.614840       -16.7307
   5   2.0000      -0.545813       -14.8523
   6   2.0000      -0.522443       -14.2164
   7   2.0000      -0.431080       -11.7303
   8   2.0000      -0.377873       -10.2824
   9   0.0000       0.091587         2.4922
  10   0.0000       0.122430         3.3315
  11   0.0000       0.151232         4.1152
  12   0.0000       0.181060         4.9269
  13   0.0000       0.205071         5.5803

MULLIKEN ATOMIC CHARGES
-----------------------
   0 C :   -0.000620
   1 O :   -0.001493
   2 H :   -0.004061
   3 H :   -0.000027
   4 H :    0.000058
   5 H :   -0.000024
   6 C :   -0.176957
   7 O :   -0.476357
   8 H :    0.312867
   9 H :    0.121232
  10 H :    0.107612
  11 H :    0.117771
Sum of atomic charges:   -0.0000000

LOEWDIN ATOMIC CHARGES
----------------------
   0 C :   -0.000493
   1 O :   -0.005312
   2 H :   -0.013607
   3 H :   -0.000028
   4 H :   -0.000004
   5 H :   -0.000012
   6 C :   -0.373982
   7 O :   -0.056560
   8 H :    0.150711
   9 H :    0.090458
  10 H :    0.101223
  11 H :    0.107607

  Mayer bond orders larger than 0.1
B(  6-C ,  7-O ) :   0.9904 B(  6-C ,  9-H ) :   0.9706 B(  6-C , 10-H ) :   0.9793
B(  6-C , 11-H ) :   0.9817 B(  7-O ,  8-H ) :   0.9039

Dispersion correction           -0.000263297
FINAL SINGLE POINT ENERGY      -115.734009023234

DIPOLE MOMENT
-------------
                                X             Y             Z
Electronic contribution:     -0.90870       0.73576       1.44312
Nuclear contribution   :      1.56931      -0.92681      -1.43517
                        -----------------------------------------
Total Dipole Moment    :      0.66061      -0.19105       0.00795
                        -----------------------------------------
Magnitude (a.u.)       :      0.68773
Magnitude (Debye)      :      1.74806

Rotational constants in cm-1:     4.493681     0.813676     0.789626
Rotational constants in MHz : 134717.154200 24393.406897 23672.378342

                             ****ORCA TERMINATED NORMALLY****
TOTAL RUN TIME: 0 days 0 hours 1 minutes 11 seconds 855 msec
