                         Program Version 4.1.2  - RELEASE  -
|  1> #Run DFT-D3 single point of the dimer
|  2> ! wB97X-D3 def2-TZVP TIGHTSCF CHELPG PMODEL PAL8
|  3>
|  4> %base "15-87_DFT_AB"
|  5>
|  6> %scf
|  7> MaxIter 1000
|  8> end
|  9>
| 10> * xyz 0 1
| 11>   C                      -3.485730            -1.394707            -9.730617
| 12>   O                      -2.209008            -1.200329            -10.263792
| 13>   H                      -1.614533            -1.875366            -9.926658
| 14>   H                      -4.240539            -0.844386            -10.235814
| 15>   H                      -3.804167            -2.419185            -9.794614
| 16>   H                      -3.535408            -1.094552            -8.687688
| 17>   C                      -3.792512            1.488583             -7.452187
| 18>   O                      -4.759811            2.049113             -8.376682
| 19>   H                      -4.986571            1.271547             -8.877913
| 20>   H                      -4.248719            0.778068             -6.799371
| 21>   H                      -2.845662            1.009647             -7.852309
| 22>   H                      -3.524249            2.327959             -6.747354
| 23> *
| 24>
| 25> #Run DFT-D3 single point of the molecule with dimer basis set
| 26> $new_job
| 27> %base "15-87_DFT_A"
| 28> ! wB97X-D3 def2-TZVP TIGHTSCF CHELPG PMODEL
| 29>
| 30> %scf
| 31> MaxIter 1000
| 32> end
| 33>
| 34> * xyz 0 1
| 35>   C                      -3.485730            -1.394707            -9.730617
| 36>   O                      -2.209008            -1.200329            -10.263792
| 37>   H                      -1.614533            -1.875366            -9.926658
| 38>   H                      -4.240539            -0.844386            -10.235814
| 39>   H                      -3.804167            -2.419185            -9.794614
| 40>   H                      -3.535408            -1.094552            -8.687688
| 41>   C                    : -3.792512            1.488583             -7.452187
| 42>   O                    : -4.759811            2.049113             -8.376682
| 43>   H                    : -4.986571            1.271547             -8.877913
| 44>   H                    : -4.248719            0.778068             -6.799371
| 45>   H                    : -2.845662            1.009647             -7.852309
| 46>   H                    : -3.524249            2.327959             -6.747354
| 47> *
| 48>
| 49> #Run DFT-D3 single point of the particle with dimer basis set
| 50> $new_job
| 51> %base "15-87_DFT_B"
| 52> ! wB97X-D3 def2-TZVP TIGHTSCF CHELPG PMODEL
| 53>
| 54> %scf
| 55> MaxIter 1000
| 56> end
| 57>
| 58> * xyz 0 1
| 59>   C                    : -3.485730            -1.394707            -9.730617
| 60>   O                    : -2.209008            -1.200329            -10.263792
| 61>   H                    : -1.614533            -1.875366            -9.926658
| 62>   H                    : -4.240539            -0.844386            -10.235814
| 63>   H                    : -3.804167            -2.419185            -9.794614
| 64>   H                    : -3.535408            -1.094552            -8.687688
| 65>   C                      -3.792512            1.488583             -7.452187
| 66>   O                      -4.759811            2.049113             -8.376682
| 67>   H                      -4.986571            1.271547             -8.877913
| 68>   H                      -4.248719            0.778068             -6.799371
| 69>   H                      -2.845662            1.009647             -7.852309
| 70>   H                      -3.524249            2.327959             -6.747354
| 71> *
| 72>
| 73>                          ****END OF INPUT****
 Total Charge           Charge          ....    0
 Multiplicity           Mult            ....    1
 Number of Electrons    NEL             ....   36
Dispersion correction           -0.001945980
FINAL SINGLE POINT ENERGY      -231.466194369159
Dispersion correction           -0.000232783
FINAL SINGLE POINT ENERGY      -115.735358862937

CARTESIAN COORDINATES (ANGSTROEM)
---------------------------------
  C     -3.485730   -1.394707   -9.730617
  O     -2.209008   -1.200329  -10.263792
  H     -1.614533   -1.875366   -9.926658
  H     -4.240539   -0.844386  -10.235814
  H     -3.804167   -2.419185   -9.794614
  H     -3.535408   -1.094552   -8.687688
  C     -3.792512    1.488583   -7.452187
  O     -4.759811    2.049113   -8.376682
  H     -4.986571    1.271547   -8.877913
  H     -4.248719    0.778068   -6.799371
  H     -2.845662    1.009647   -7.852309
  H     -3.524249    2.327959   -6.747354

 Multiplicity           Mult            ....    1
 Number of Electrons    NEL             ....   18
 Basis Dimension        Dim             ....  172

ORBITAL ENERGIES
----------------

  NO   OCC          E(Eh)            E(eV)
   0   2.0000     -19.236566      -523.4536
   1   2.0000     -10.320956      -280.8475
   2   2.0000      -1.134515       -30.8717
   3   2.0000      -0.792926       -21.5766
   4   2.0000      -0.606848       -16.5132
   5   2.0000      -0.536629       -14.6024
   6   2.0000      -0.514815       -14.0088
   7   2.0000      -0.444807       -12.1038
   8   2.0000      -0.379762       -10.3338
   9   0.0000       0.072758         1.9798
  10   0.0000       0.125787         3.4228
  11   0.0000       0.144892         3.9427
  12   0.0000       0.168902         4.5961
  13   0.0000       0.189685         5.1616

MULLIKEN ATOMIC CHARGES
-----------------------
   0 C :    0.002407
   1 O :   -0.000321
   2 H :   -0.000109
   3 H :   -0.001112
   4 H :    0.000030
   5 H :   -0.002533
   6 C :   -0.203591
   7 O :   -0.454386
   8 H :    0.310207
   9 H :    0.116413
  10 H :    0.107133
  11 H :    0.125863
Sum of atomic charges:    0.0000000

LOEWDIN ATOMIC CHARGES
----------------------
   0 C :   -0.005821
   1 O :   -0.000201
   2 H :   -0.000051
   3 H :   -0.001398
   4 H :   -0.000025
   5 H :   -0.005496
   6 C :   -0.373810
   7 O :   -0.088930
   8 H :    0.163177
   9 H :    0.090250
  10 H :    0.105017
  11 H :    0.117288

  Mayer bond orders larger than 0.1
B(  6-C ,  7-O ) :   1.0054 B(  6-C ,  9-H ) :   0.9745 B(  6-C , 10-H ) :   0.9606
B(  6-C , 11-H ) :   0.9763 B(  7-O ,  8-H ) :   0.9100

Dispersion correction           -0.000261668
FINAL SINGLE POINT ENERGY      -115.730137652947

DIPOLE MOMENT
-------------
                                X             Y             Z
Electronic contribution:     -1.23299       0.81190      -1.26104
Nuclear contribution   :      1.44866      -1.51099       1.34169
                        -----------------------------------------
Total Dipole Moment    :      0.21567      -0.69910       0.08065
                        -----------------------------------------
Magnitude (a.u.)       :      0.73604
Magnitude (Debye)      :      1.87086

Rotational constants in cm-1:     4.225023     0.798372     0.765905
Rotational constants in MHz : 126663.002337 23934.575846 22961.268348

                             ****ORCA TERMINATED NORMALLY****
TOTAL RUN TIME: 0 days 0 hours 1 minutes 5 seconds 493 msec
