                         Program Version 4.1.2  - RELEASE  -
|  1> #Run DFT-D3 single point of the dimer
|  2> ! wB97X-D3 def2-TZVP TIGHTSCF CHELPG PMODEL PAL8
|  3>
|  4> %base "21-55_DFT_AB"
|  5>
|  6> %scf
|  7> MaxIter 1000
|  8> end
|  9>
| 10> * xyz 0 1
| 11>   C                      -5.021241            -8.045832            2.494545
| 12>   O                      -5.989247            -7.308026            3.203133
| 13>   H                      -6.772489            -7.218520            2.640288
| 14>   H                      -4.100609            -8.060883            3.101031
| 15>   H                      -5.262900            -9.056602            2.291049
| 16>   H                      -4.833772            -7.685138            1.454732
| 17>   C                      -1.127269            -7.318845            -0.716428
| 18>   O                      -1.761045            -7.930545            -1.834784
| 19>   H                      -1.366283            -7.497340            -2.620460
| 20>   H                      -0.055521            -7.273837            -0.889200
| 21>   H                      -1.556174            -6.300694            -0.631375
| 22>   H                      -1.324985            -7.905945            0.209468
| 23> *
| 24>
| 25> #Run DFT-D3 single point of the molecule with dimer basis set
| 26> $new_job
| 27> %base "21-55_DFT_A"
| 28> ! wB97X-D3 def2-TZVP TIGHTSCF CHELPG PMODEL
| 29>
| 30> %scf
| 31> MaxIter 1000
| 32> end
| 33>
| 34> * xyz 0 1
| 35>   C                      -5.021241            -8.045832            2.494545
| 36>   O                      -5.989247            -7.308026            3.203133
| 37>   H                      -6.772489            -7.218520            2.640288
| 38>   H                      -4.100609            -8.060883            3.101031
| 39>   H                      -5.262900            -9.056602            2.291049
| 40>   H                      -4.833772            -7.685138            1.454732
| 41>   C                    : -1.127269            -7.318845            -0.716428
| 42>   O                    : -1.761045            -7.930545            -1.834784
| 43>   H                    : -1.366283            -7.497340            -2.620460
| 44>   H                    : -0.055521            -7.273837            -0.889200
| 45>   H                    : -1.556174            -6.300694            -0.631375
| 46>   H                    : -1.324985            -7.905945            0.209468
| 47> *
| 48>
| 49> #Run DFT-D3 single point of the particle with dimer basis set
| 50> $new_job
| 51> %base "21-55_DFT_B"
| 52> ! wB97X-D3 def2-TZVP TIGHTSCF CHELPG PMODEL
| 53>
| 54> %scf
| 55> MaxIter 1000
| 56> end
| 57>
| 58> * xyz 0 1
| 59>   C                    : -5.021241            -8.045832            2.494545
| 60>   O                    : -5.989247            -7.308026            3.203133
| 61>   H                    : -6.772489            -7.218520            2.640288
| 62>   H                    : -4.100609            -8.060883            3.101031
| 63>   H                    : -5.262900            -9.056602            2.291049
| 64>   H                    : -4.833772            -7.685138            1.454732
| 65>   C                      -1.127269            -7.318845            -0.716428
| 66>   O                      -1.761045            -7.930545            -1.834784
| 67>   H                      -1.366283            -7.497340            -2.620460
| 68>   H                      -0.055521            -7.273837            -0.889200
| 69>   H                      -1.556174            -6.300694            -0.631375
| 70>   H                      -1.324985            -7.905945            0.209468
| 71> *
| 72>
| 73>                          ****END OF INPUT****
 Total Charge           Charge          ....    0
 Multiplicity           Mult            ....    1
 Number of Electrons    NEL             ....   36
Dispersion correction           -0.000763121
FINAL SINGLE POINT ENERGY      -231.468703271342
Dispersion correction           -0.000248837
FINAL SINGLE POINT ENERGY      -115.733469837141

CARTESIAN COORDINATES (ANGSTROEM)
---------------------------------
  C     -5.021241   -8.045832    2.494545
  O     -5.989247   -7.308026    3.203133
  H     -6.772489   -7.218520    2.640288
  H     -4.100609   -8.060883    3.101031
  H     -5.262900   -9.056602    2.291049
  H     -4.833772   -7.685138    1.454732
  C     -1.127269   -7.318845   -0.716428
  O     -1.761045   -7.930545   -1.834784
  H     -1.366283   -7.497340   -2.620460
  H     -0.055521   -7.273837   -0.889200
  H     -1.556174   -6.300694   -0.631375
  H     -1.324985   -7.905945    0.209468

 Multiplicity           Mult            ....    1
 Number of Electrons    NEL             ....   18
 Basis Dimension        Dim             ....  172

ORBITAL ENERGIES
----------------

  NO   OCC          E(Eh)            E(eV)
   0   2.0000     -19.229034      -523.2486
   1   2.0000     -10.316124      -280.7160
   2   2.0000      -1.130133       -30.7525
   3   2.0000      -0.788416       -21.4539
   4   2.0000      -0.603582       -16.4243
   5   2.0000      -0.544193       -14.8082
   6   2.0000      -0.524150       -14.2629
   7   2.0000      -0.434297       -11.8178
   8   2.0000      -0.370619       -10.0851
   9   0.0000       0.087350         2.3769
  10   0.0000       0.112019         3.0482
  11   0.0000       0.147575         4.0157
  12   0.0000       0.171612         4.6698
  13   0.0000       0.192166         5.2291

MULLIKEN ATOMIC CHARGES
-----------------------
   0 C :   -0.000116
   1 O :    0.000004
   2 H :    0.000000
   3 H :   -0.000059
   4 H :   -0.000006
   5 H :    0.000157
   6 C :   -0.169547
   7 O :   -0.477697
   8 H :    0.314325
   9 H :    0.108890
  10 H :    0.102661
  11 H :    0.121387
Sum of atomic charges:   -0.0000000

LOEWDIN ATOMIC CHARGES
----------------------
   0 C :   -0.000112
   1 O :   -0.000001
   2 H :   -0.000000
   3 H :   -0.000041
   4 H :   -0.000003
   5 H :   -0.000049
   6 C :   -0.382929
   7 O :   -0.099940
   8 H :    0.180028
   9 H :    0.093005
  10 H :    0.098063
  11 H :    0.111979

  Mayer bond orders larger than 0.1
B(  6-C ,  7-O ) :   0.9877 B(  6-C ,  9-H ) :   0.9789 B(  6-C , 10-H ) :   0.9795
B(  6-C , 11-H ) :   0.9697 B(  7-O ,  8-H ) :   0.8984

Dispersion correction           -0.000223109
FINAL SINGLE POINT ENERGY      -115.734589265531

DIPOLE MOMENT
-------------
                                X             Y             Z
Electronic contribution:     -0.84303      -0.88359      -1.25365
Nuclear contribution   :      1.35180       1.38556       1.21363
                        -----------------------------------------
Total Dipole Moment    :      0.50877       0.50197      -0.04002
                        -----------------------------------------
Magnitude (a.u.)       :      0.71584
Magnitude (Debye)      :      1.81952

Rotational constants in cm-1:     4.095952     0.831451     0.800020
Rotational constants in MHz : 122793.544417 24926.286766 23983.990402

                             ****ORCA TERMINATED NORMALLY****
TOTAL RUN TIME: 0 days 0 hours 1 minutes 4 seconds 297 msec
