                         Program Version 4.1.2  - RELEASE  -
|  1> #Run DFT geometry optimization
|  2> ! wB97X-D3 def2-TZVP TIGHTSCF Grid5 FinalGrid6 Opt CHELPG PAL4
|  3>
|  4> %base "10_geo_opt"
|  5> %geom MaxIter 500
|  6> end
|  7>
|  8> %geom
|  9>   Constraints
| 10>     { B 2 1 C }
| 11>   end
| 12> end
| 13>
| 14>
| 15> * xyz 0 1
| 16>   C                    3.011505             -1.180506            0.598251
| 17>   O                    4.394870             -1.127659            0.874066
| 18>   H                    4.771999             -0.379413            0.412734
| 19>   H                    2.806631             -1.318574            -0.469591
| 20>   H                    2.611829             -2.039874            1.135657
| 21>   H                    2.484954             -0.284100            0.945418
| 22> *
| 23>
| 24>                          ****END OF INPUT****
 Total Charge           Charge          ....    0
 Multiplicity           Mult            ....    1
 Number of Electrons    NEL             ....   18
Dispersion correction           -0.000239167
FINAL SINGLE POINT ENERGY      -115.738050401516
Dispersion correction            ... done
                    ***********************HURRAY********************

CARTESIAN COORDINATES (ANGSTROEM)
---------------------------------
  C      3.011545   -1.180551    0.598289
  O      4.394881   -1.127618    0.874024
  H      4.772036   -0.379365    0.412726
  H      2.806640   -1.318589   -0.469554
  H      2.611705   -2.039869    1.135631
  H      2.484982   -0.284134    0.945419

 Multiplicity           Mult            ....    1
 Number of Electrons    NEL             ....   18
 Basis Dimension        Dim             ....   86

ORBITAL ENERGIES
----------------

  NO   OCC          E(Eh)            E(eV)
   0   2.0000     -19.228007      -523.2207
   1   2.0000     -10.315120      -280.6887
   2   2.0000      -1.137007       -30.9395
   3   2.0000      -0.795445       -21.6451
   4   2.0000      -0.611716       -16.6456
   5   2.0000      -0.541789       -14.7428
   6   2.0000      -0.526375       -14.3234
   7   2.0000      -0.433827       -11.8050
   8   2.0000      -0.373641       -10.1673
   9   0.0000       0.116749         3.1769
  10   0.0000       0.156718         4.2645
  11   0.0000       0.202588         5.5127
  12   0.0000       0.205112         5.5814
  13   0.0000       0.226406         6.1608

MULLIKEN ATOMIC CHARGES
-----------------------
   0 C :   -0.150859
   1 O :   -0.477508
   2 H :    0.312882
   3 H :    0.098624
   4 H :    0.118232
   5 H :    0.098628
Sum of atomic charges:    0.0000000

LOEWDIN ATOMIC CHARGES
----------------------
   0 C :   -0.385078
   1 O :   -0.075583
   2 H :    0.165160
   3 H :    0.093405
   4 H :    0.108692
   5 H :    0.093403

  Mayer bond orders larger than 0.1
B(  0-C ,  1-O ) :   0.9986 B(  0-C ,  3-H ) :   0.9755 B(  0-C ,  4-H ) :   0.9750
B(  0-C ,  5-H ) :   0.9755 B(  1-O ,  2-H ) :   0.9004

Dispersion correction           -0.000239171
FINAL SINGLE POINT ENERGY      -115.738050421581

DIPOLE MOMENT
-------------
                                X             Y             Z
Electronic contribution:      1.75618      -0.02781       0.41953
Nuclear contribution   :     -2.06610       0.47517      -0.81702
                        -----------------------------------------
Total Dipole Moment    :     -0.30993       0.44736      -0.39749
                        -----------------------------------------
Magnitude (a.u.)       :      0.67393
Magnitude (Debye)      :      1.71299

Rotational constants in cm-1:     4.294756     0.833848     0.805016
Rotational constants in MHz : 128753.542076 24998.124796 24133.779192

                             ****ORCA TERMINATED NORMALLY****
TOTAL RUN TIME: 0 days 0 hours 0 minutes 35 seconds 477 msec
