                         Program Version 4.1.2  - RELEASE  -
|  1> #Run DFT-D3 single point of the dimer
|  2> ! wB97X-D3 def2-TZVP TIGHTSCF CHELPG PMODEL PAL8
|  3>
|  4> %base "4-32_DFT_AB"
|  5>
|  6> %scf
|  7> MaxIter 1000
|  8> end
|  9>
| 10> * xyz 0 1
| 11>   C                      -5.192736            -2.225288            6.637700
| 12>   O                      -5.408181            -1.507434            5.386835
| 13>   H                      -4.517370            -1.420161            5.041826
| 14>   H                      -4.838058            -1.544956            7.408872
| 15>   H                      -6.004383            -2.688830            7.117625
| 16>   H                      -4.338427            -2.918640            6.592779
| 17>   C                      -4.097909            -3.346080            10.176316
| 18>   O                      -3.924344            -2.912605            11.484815
| 19>   H                      -2.951228            -2.867972            11.678836
| 20>   H                      -5.106961            -3.159464            9.760930
| 21>   H                      -3.335578            -3.062956            9.464790
| 22>   H                      -4.099230            -4.435365            10.272616
| 23> *
| 24>
| 25> #Run DFT-D3 single point of the molecule with dimer basis set
| 26> $new_job
| 27> %base "4-32_DFT_A"
| 28> ! wB97X-D3 def2-TZVP TIGHTSCF CHELPG PMODEL
| 29>
| 30> %scf
| 31> MaxIter 1000
| 32> end
| 33>
| 34> * xyz 0 1
| 35>   C                      -5.192736            -2.225288            6.637700
| 36>   O                      -5.408181            -1.507434            5.386835
| 37>   H                      -4.517370            -1.420161            5.041826
| 38>   H                      -4.838058            -1.544956            7.408872
| 39>   H                      -6.004383            -2.688830            7.117625
| 40>   H                      -4.338427            -2.918640            6.592779
| 41>   C                    : -4.097909            -3.346080            10.176316
| 42>   O                    : -3.924344            -2.912605            11.484815
| 43>   H                    : -2.951228            -2.867972            11.678836
| 44>   H                    : -5.106961            -3.159464            9.760930
| 45>   H                    : -3.335578            -3.062956            9.464790
| 46>   H                    : -4.099230            -4.435365            10.272616
| 47> *
| 48>
| 49> #Run DFT-D3 single point of the particle with dimer basis set
| 50> $new_job
| 51> %base "4-32_DFT_B"
| 52> ! wB97X-D3 def2-TZVP TIGHTSCF CHELPG PMODEL
| 53>
| 54> %scf
| 55> MaxIter 1000
| 56> end
| 57>
| 58> * xyz 0 1
| 59>   C                    : -5.192736            -2.225288            6.637700
| 60>   O                    : -5.408181            -1.507434            5.386835
| 61>   H                    : -4.517370            -1.420161            5.041826
| 62>   H                    : -4.838058            -1.544956            7.408872
| 63>   H                    : -6.004383            -2.688830            7.117625
| 64>   H                    : -4.338427            -2.918640            6.592779
| 65>   C                      -4.097909            -3.346080            10.176316
| 66>   O                      -3.924344            -2.912605            11.484815
| 67>   H                      -2.951228            -2.867972            11.678836
| 68>   H                      -5.106961            -3.159464            9.760930
| 69>   H                      -3.335578            -3.062956            9.464790
| 70>   H                      -4.099230            -4.435365            10.272616
| 71> *
| 72>
| 73>                          ****END OF INPUT****
 Total Charge           Charge          ....    0
 Multiplicity           Mult            ....    1
 Number of Electrons    NEL             ....   36
Dispersion correction           -0.001495846
FINAL SINGLE POINT ENERGY      -231.456768489269
Dispersion correction           -0.000252548
FINAL SINGLE POINT ENERGY      -115.726924257373

CARTESIAN COORDINATES (ANGSTROEM)
---------------------------------
  C     -5.192736   -2.225288    6.637700
  O     -5.408181   -1.507434    5.386835
  H     -4.517370   -1.420161    5.041826
  H     -4.838058   -1.544956    7.408872
  H     -6.004383   -2.688830    7.117625
  H     -4.338427   -2.918640    6.592779
  C     -4.097909   -3.346080   10.176316
  O     -3.924344   -2.912605   11.484815
  H     -2.951228   -2.867972   11.678836
  H     -5.106961   -3.159464    9.760930
  H     -3.335578   -3.062956    9.464790
  H     -4.099230   -4.435365   10.272616

 Multiplicity           Mult            ....    1
 Number of Electrons    NEL             ....   18
 Basis Dimension        Dim             ....  172

ORBITAL ENERGIES
----------------

  NO   OCC          E(Eh)            E(eV)
   0   2.0000     -19.231898      -523.3266
   1   2.0000     -10.309772      -280.5432
   2   2.0000      -1.137882       -30.9633
   3   2.0000      -0.791882       -21.5482
   4   2.0000      -0.613198       -16.6860
   5   2.0000      -0.539815       -14.6891
   6   2.0000      -0.532589       -14.4925
   7   2.0000      -0.433568       -11.7980
   8   2.0000      -0.364053        -9.9064
   9   0.0000       0.083333         2.2676
  10   0.0000       0.111736         3.0405
  11   0.0000       0.145518         3.9597
  12   0.0000       0.174393         4.7455
  13   0.0000       0.186352         5.0709

MULLIKEN ATOMIC CHARGES
-----------------------
   0 C :   -0.003926
   1 O :   -0.000040
   2 H :   -0.000021
   3 H :    0.000474
   4 H :    0.000452
   5 H :    0.000541
   6 C :   -0.166020
   7 O :   -0.472734
   8 H :    0.319932
   9 H :    0.115580
  10 H :    0.106841
  11 H :    0.098920
Sum of atomic charges:   -0.0000000

LOEWDIN ATOMIC CHARGES
----------------------
   0 C :   -0.004250
   1 O :   -0.000015
   2 H :   -0.000006
   3 H :   -0.001641
   4 H :   -0.001128
   5 H :   -0.000688
   6 C :   -0.410291
   7 O :   -0.075038
   8 H :    0.191927
   9 H :    0.111544
  10 H :    0.092839
  11 H :    0.096746

  Mayer bond orders larger than 0.1
B(  6-C ,  7-O ) :   1.0037 B(  6-C ,  9-H ) :   0.9702 B(  6-C , 10-H ) :   0.9733
B(  6-C , 11-H ) :   0.9855 B(  7-O ,  8-H ) :   0.8906

Dispersion correction           -0.000232720
FINAL SINGLE POINT ENERGY      -115.729283891043

DIPOLE MOMENT
-------------
                                X             Y             Z
Electronic contribution:      0.13781       0.78671       1.67950
Nuclear contribution   :      0.41264      -0.92496      -2.05534
                        -----------------------------------------
Total Dipole Moment    :      0.55044      -0.13824      -0.37584
                        -----------------------------------------
Magnitude (a.u.)       :      0.68070
Magnitude (Debye)      :      1.73020

Rotational constants in cm-1:     4.320609     0.854263     0.814922
Rotational constants in MHz : 129528.613435 25610.149844 24430.734603

                             ****ORCA TERMINATED NORMALLY****
TOTAL RUN TIME: 0 days 0 hours 1 minutes 34 seconds 617 msec
