                         Program Version 4.1.2  - RELEASE  -
|  1> #Run DFT-D3 single point of the dimer
|  2> ! wB97X-D3 def2-TZVP TIGHTSCF CHELPG PMODEL PAL8
|  3>
|  4> %base "5-199_DFT_AB"
|  5>
|  6> %scf
|  7> MaxIter 1000
|  8> end
|  9>
| 10> * xyz 0 1
| 11>   C                      1.574594             -2.147675            -10.160961
| 12>   O                      2.480961             -1.239558            -9.580505
| 13>   H                      1.907902             -0.652711            -9.047273
| 14>   H                      1.867958             -2.624338            -11.055404
| 15>   H                      1.212482             -2.902957            -9.483861
| 16>   H                      0.750634             -1.476024            -10.482996
| 17>   C                      2.353081             -0.880350            -6.504355
| 18>   O                      1.661441             0.076911             -7.250293
| 19>   H                      1.107674             0.525825             -6.662091
| 20>   H                      1.606776             -1.531496            -6.087425
| 21>   H                      2.995200             -1.478688            -7.120673
| 22>   H                      2.889406             -0.455719            -5.641669
| 23> *
| 24>
| 25> #Run DFT-D3 single point of the molecule with dimer basis set
| 26> $new_job
| 27> %base "5-199_DFT_A"
| 28> ! wB97X-D3 def2-TZVP TIGHTSCF CHELPG PMODEL
| 29>
| 30> %scf
| 31> MaxIter 1000
| 32> end
| 33>
| 34> * xyz 0 1
| 35>   C                      1.574594             -2.147675            -10.160961
| 36>   O                      2.480961             -1.239558            -9.580505
| 37>   H                      1.907902             -0.652711            -9.047273
| 38>   H                      1.867958             -2.624338            -11.055404
| 39>   H                      1.212482             -2.902957            -9.483861
| 40>   H                      0.750634             -1.476024            -10.482996
| 41>   C                    : 2.353081             -0.880350            -6.504355
| 42>   O                    : 1.661441             0.076911             -7.250293
| 43>   H                    : 1.107674             0.525825             -6.662091
| 44>   H                    : 1.606776             -1.531496            -6.087425
| 45>   H                    : 2.995200             -1.478688            -7.120673
| 46>   H                    : 2.889406             -0.455719            -5.641669
| 47> *
| 48>
| 49> #Run DFT-D3 single point of the particle with dimer basis set
| 50> $new_job
| 51> %base "5-199_DFT_B"
| 52> ! wB97X-D3 def2-TZVP TIGHTSCF CHELPG PMODEL
| 53>
| 54> %scf
| 55> MaxIter 1000
| 56> end
| 57>
| 58> * xyz 0 1
| 59>   C                    : 1.574594             -2.147675            -10.160961
| 60>   O                    : 2.480961             -1.239558            -9.580505
| 61>   H                    : 1.907902             -0.652711            -9.047273
| 62>   H                    : 1.867958             -2.624338            -11.055404
| 63>   H                    : 1.212482             -2.902957            -9.483861
| 64>   H                    : 0.750634             -1.476024            -10.482996
| 65>   C                      2.353081             -0.880350            -6.504355
| 66>   O                      1.661441             0.076911             -7.250293
| 67>   H                      1.107674             0.525825             -6.662091
| 68>   H                      1.606776             -1.531496            -6.087425
| 69>   H                      2.995200             -1.478688            -7.120673
| 70>   H                      2.889406             -0.455719            -5.641669
| 71> *
| 72>
| 73>                          ****END OF INPUT****
 Total Charge           Charge          ....    0
 Multiplicity           Mult            ....    1
 Number of Electrons    NEL             ....   36
Dispersion correction           -0.001894484
FINAL SINGLE POINT ENERGY      -231.470138204569
Dispersion correction           -0.000217012
FINAL SINGLE POINT ENERGY      -115.728919692101

CARTESIAN COORDINATES (ANGSTROEM)
---------------------------------
  C      1.574594   -2.147675  -10.160961
  O      2.480961   -1.239558   -9.580505
  H      1.907902   -0.652711   -9.047273
  H      1.867958   -2.624338  -11.055404
  H      1.212482   -2.902957   -9.483861
  H      0.750634   -1.476024  -10.482996
  C      2.353081   -0.880350   -6.504355
  O      1.661441    0.076911   -7.250293
  H      1.107674    0.525825   -6.662091
  H      1.606776   -1.531496   -6.087425
  H      2.995200   -1.478688   -7.120673
  H      2.889406   -0.455719   -5.641669

 Multiplicity           Mult            ....    1
 Number of Electrons    NEL             ....   18
 Basis Dimension        Dim             ....  172

ORBITAL ENERGIES
----------------

  NO   OCC          E(Eh)            E(eV)
   0   2.0000     -19.225893      -523.1632
   1   2.0000     -10.308470      -280.5077
   2   2.0000      -1.149730       -31.2858
   3   2.0000      -0.800092       -21.7716
   4   2.0000      -0.619130       -16.8474
   5   2.0000      -0.543201       -14.7812
   6   2.0000      -0.536846       -14.6083
   7   2.0000      -0.438351       -11.9281
   8   2.0000      -0.370890       -10.0924
   9   0.0000       0.096681         2.6308
  10   0.0000       0.126352         3.4382
  11   0.0000       0.157541         4.2869
  12   0.0000       0.185881         5.0581
  13   0.0000       0.199679         5.4335

MULLIKEN ATOMIC CHARGES
-----------------------
   0 C :   -0.001240
   1 O :    0.002182
   2 H :   -0.008533
   3 H :   -0.000140
   4 H :    0.000041
   5 H :   -0.000626
   6 C :   -0.159523
   7 O :   -0.457035
   8 H :    0.302154
   9 H :    0.102955
  10 H :    0.118812
  11 H :    0.100954
Sum of atomic charges:   -0.0000000

LOEWDIN ATOMIC CHARGES
----------------------
   0 C :   -0.002447
   1 O :   -0.007329
   2 H :   -0.036189
   3 H :   -0.000035
   4 H :   -0.000174
   5 H :   -0.000232
   6 C :   -0.381015
   7 O :   -0.015644
   8 H :    0.146613
   9 H :    0.093085
  10 H :    0.106827
  11 H :    0.096541

  Mayer bond orders larger than 0.1
B(  6-C ,  7-O ) :   0.9739 B(  6-C ,  9-H ) :   0.9877 B(  6-C , 10-H ) :   0.9773
B(  6-C , 11-H ) :   0.9714 B(  7-O ,  8-H ) :   0.9090

Dispersion correction           -0.000210412
FINAL SINGLE POINT ENERGY      -115.733443179374

DIPOLE MOMENT
-------------
                                X             Y             Z
Electronic contribution:     -0.71758       1.21362      -1.13055
Nuclear contribution   :      0.62426      -1.31012       1.80658
                        -----------------------------------------
Total Dipole Moment    :     -0.09332      -0.09650       0.67604
                        -----------------------------------------
Magnitude (a.u.)       :      0.68924
Magnitude (Debye)      :      1.75190

Rotational constants in cm-1:     4.408422     0.858166     0.823442
Rotational constants in MHz : 132161.154041 25727.175464 24686.159810

                             ****ORCA TERMINATED NORMALLY****
TOTAL RUN TIME: 0 days 0 hours 1 minutes 1 seconds 915 msec
