                         Program Version 4.1.2  - RELEASE  -
|  1> #Run DFT-D3 single point of the dimer
|  2> ! wB97X-D3 def2-TZVP TIGHTSCF CHELPG PMODEL PAL8
|  3>
|  4> %base "19-159_DFT_AB"
|  5>
|  6> %scf
|  7> MaxIter 1000
|  8> end
|  9>
| 10> * xyz 0 1
| 11>   C                      -9.910332            -1.444865            6.681377
| 12>   O                      -8.594593            -1.476581            6.114144
| 13>   H                      -8.607450            -1.391479            5.132857
| 14>   H                      -10.341876           -0.439712            6.581889
| 15>   H                      -10.615634           -2.049773            6.122155
| 16>   H                      -9.973743            -1.727062            7.796625
| 17>   C                      -5.117859            -3.276078            5.133270
| 18>   O                      -6.298040            -2.714950            4.519326
| 19>   H                      -6.725949            -2.365606            5.340582
| 20>   H                      -4.632843            -2.580923            5.858612
| 21>   H                      -5.226647            -4.263213            5.640708
| 22>   H                      -4.283180            -3.493743            4.528595
| 23> *
| 24>
| 25> #Run DFT-D3 single point of the molecule with dimer basis set
| 26> $new_job
| 27> %base "19-159_DFT_A"
| 28> ! wB97X-D3 def2-TZVP TIGHTSCF CHELPG PMODEL
| 29>
| 30> %scf
| 31> MaxIter 1000
| 32> end
| 33>
| 34> * xyz 0 1
| 35>   C                      -9.910332            -1.444865            6.681377
| 36>   O                      -8.594593            -1.476581            6.114144
| 37>   H                      -8.607450            -1.391479            5.132857
| 38>   H                      -10.341876           -0.439712            6.581889
| 39>   H                      -10.615634           -2.049773            6.122155
| 40>   H                      -9.973743            -1.727062            7.796625
| 41>   C                    : -5.117859            -3.276078            5.133270
| 42>   O                    : -6.298040            -2.714950            4.519326
| 43>   H                    : -6.725949            -2.365606            5.340582
| 44>   H                    : -4.632843            -2.580923            5.858612
| 45>   H                    : -5.226647            -4.263213            5.640708
| 46>   H                    : -4.283180            -3.493743            4.528595
| 47> *
| 48>
| 49> #Run DFT-D3 single point of the particle with dimer basis set
| 50> $new_job
| 51> %base "19-159_DFT_B"
| 52> ! wB97X-D3 def2-TZVP TIGHTSCF CHELPG PMODEL
| 53>
| 54> %scf
| 55> MaxIter 1000
| 56> end
| 57>
| 58> * xyz 0 1
| 59>   C                    : -9.910332            -1.444865            6.681377
| 60>   O                    : -8.594593            -1.476581            6.114144
| 61>   H                    : -8.607450            -1.391479            5.132857
| 62>   H                    : -10.341876           -0.439712            6.581889
| 63>   H                    : -10.615634           -2.049773            6.122155
| 64>   H                    : -9.973743            -1.727062            7.796625
| 65>   C                      -5.117859            -3.276078            5.133270
| 66>   O                      -6.298040            -2.714950            4.519326
| 67>   H                      -6.725949            -2.365606            5.340582
| 68>   H                      -4.632843            -2.580923            5.858612
| 69>   H                      -5.226647            -4.263213            5.640708
| 70>   H                      -4.283180            -3.493743            4.528595
| 71> *
| 72>
| 73>                          ****END OF INPUT****
 Total Charge           Charge          ....    0
 Multiplicity           Mult            ....    1
 Number of Electrons    NEL             ....   36
Dispersion correction           -0.001333693
FINAL SINGLE POINT ENERGY      -231.460806621699
Dispersion correction           -0.000269591
FINAL SINGLE POINT ENERGY      -115.730199549218

CARTESIAN COORDINATES (ANGSTROEM)
---------------------------------
  C     -9.910332   -1.444865    6.681377
  O     -8.594593   -1.476581    6.114144
  H     -8.607450   -1.391479    5.132857
  H    -10.341876   -0.439712    6.581889
  H    -10.615634   -2.049773    6.122155
  H     -9.973743   -1.727062    7.796625
  C     -5.117859   -3.276078    5.133270
  O     -6.298040   -2.714950    4.519326
  H     -6.725949   -2.365606    5.340582
  H     -4.632843   -2.580923    5.858612
  H     -5.226647   -4.263213    5.640708
  H     -4.283180   -3.493743    4.528595

 Multiplicity           Mult            ....    1
 Number of Electrons    NEL             ....   18
 Basis Dimension        Dim             ....  172

ORBITAL ENERGIES
----------------

  NO   OCC          E(Eh)            E(eV)
   0   2.0000     -19.243828      -523.6512
   1   2.0000     -10.316336      -280.7218
   2   2.0000      -1.131710       -30.7954
   3   2.0000      -0.798328       -21.7236
   4   2.0000      -0.600345       -16.3362
   5   2.0000      -0.535390       -14.5687
   6   2.0000      -0.530877       -14.4459
   7   2.0000      -0.438783       -11.9399
   8   2.0000      -0.379986       -10.3399
   9   0.0000       0.077669         2.1135
  10   0.0000       0.118786         3.2323
  11   0.0000       0.141377         3.8471
  12   0.0000       0.183440         4.9916
  13   0.0000       0.198578         5.4036

MULLIKEN ATOMIC CHARGES
-----------------------
   0 C :   -0.000332
   1 O :   -0.000082
   2 H :   -0.001112
   3 H :    0.000006
   4 H :    0.000019
   5 H :   -0.000004
   6 C :   -0.211828
   7 O :   -0.452620
   8 H :    0.322005
   9 H :    0.109227
  10 H :    0.105927
  11 H :    0.128793
Sum of atomic charges:   -0.0000000

LOEWDIN ATOMIC CHARGES
----------------------
   0 C :   -0.000640
   1 O :   -0.010198
   2 H :   -0.005145
   3 H :   -0.000019
   4 H :   -0.000018
   5 H :   -0.000016
   6 C :   -0.390793
   7 O :   -0.093677
   8 H :    0.200087
   9 H :    0.101955
  10 H :    0.100349
  11 H :    0.098116

  Mayer bond orders larger than 0.1
B(  6-C ,  7-O ) :   1.0092 B(  6-C ,  9-H ) :   0.9814 B(  6-C , 10-H ) :   0.9691
B(  6-C , 11-H ) :   0.9734 B(  7-O ,  8-H ) :   0.8975

Dispersion correction           -0.000266727
FINAL SINGLE POINT ENERGY      -115.724443696117

DIPOLE MOMENT
-------------
                                X             Y             Z
Electronic contribution:     -1.63955       0.71527      -1.12655
Nuclear contribution   :      1.87710      -0.71873       1.83060
                        -----------------------------------------
Total Dipole Moment    :      0.23756      -0.00346       0.70406
                        -----------------------------------------
Magnitude (a.u.)       :      0.74306
Magnitude (Debye)      :      1.88871

Rotational constants in cm-1:     4.430343     0.788593     0.765834
Rotational constants in MHz : 132818.328970 23641.414482 22959.131164

                             ****ORCA TERMINATED NORMALLY****
TOTAL RUN TIME: 0 days 0 hours 0 minutes 49 seconds 666 msec
