                         Program Version 4.1.2  - RELEASE  -
|  1> #Run DFT-D3 single point of the dimer
|  2> ! wB97X-D3 def2-TZVP TIGHTSCF CHELPG PMODEL PAL8
|  3>
|  4> %base "6-171_DFT_AB"
|  5>
|  6> %scf
|  7> MaxIter 1000
|  8> end
|  9>
| 10> * xyz 0 1
| 11>   C                      6.824095             -4.085569            -8.586297
| 12>   O                      6.613971             -4.489802            -7.269020
| 13>   H                      6.635865             -3.771162            -6.595867
| 14>   H                      5.963133             -3.488712            -9.022146
| 15>   H                      7.700060             -3.488874            -8.759919
| 16>   H                      6.991725             -4.954480            -9.156936
| 17>   C                      3.470945             -7.871248            -6.865342
| 18>   O                      3.665469             -6.548684            -6.468324
| 19>   H                      4.557768             -6.491265            -6.276443
| 20>   H                      4.387833             -8.448434            -6.996690
| 21>   H                      2.867998             -8.443827            -6.204691
| 22>   H                      2.986948             -7.961744            -7.814579
| 23> *
| 24>
| 25> #Run DFT-D3 single point of the molecule with dimer basis set
| 26> $new_job
| 27> %base "6-171_DFT_A"
| 28> ! wB97X-D3 def2-TZVP TIGHTSCF CHELPG PMODEL
| 29>
| 30> %scf
| 31> MaxIter 1000
| 32> end
| 33>
| 34> * xyz 0 1
| 35>   C                      6.824095             -4.085569            -8.586297
| 36>   O                      6.613971             -4.489802            -7.269020
| 37>   H                      6.635865             -3.771162            -6.595867
| 38>   H                      5.963133             -3.488712            -9.022146
| 39>   H                      7.700060             -3.488874            -8.759919
| 40>   H                      6.991725             -4.954480            -9.156936
| 41>   C                    : 3.470945             -7.871248            -6.865342
| 42>   O                    : 3.665469             -6.548684            -6.468324
| 43>   H                    : 4.557768             -6.491265            -6.276443
| 44>   H                    : 4.387833             -8.448434            -6.996690
| 45>   H                    : 2.867998             -8.443827            -6.204691
| 46>   H                    : 2.986948             -7.961744            -7.814579
| 47> *
| 48>
| 49> #Run DFT-D3 single point of the particle with dimer basis set
| 50> $new_job
| 51> %base "6-171_DFT_B"
| 52> ! wB97X-D3 def2-TZVP TIGHTSCF CHELPG PMODEL
| 53>
| 54> %scf
| 55> MaxIter 1000
| 56> end
| 57>
| 58> * xyz 0 1
| 59>   C                    : 6.824095             -4.085569            -8.586297
| 60>   O                    : 6.613971             -4.489802            -7.269020
| 61>   H                    : 6.635865             -3.771162            -6.595867
| 62>   H                    : 5.963133             -3.488712            -9.022146
| 63>   H                    : 7.700060             -3.488874            -8.759919
| 64>   H                    : 6.991725             -4.954480            -9.156936
| 65>   C                      3.470945             -7.871248            -6.865342
| 66>   O                      3.665469             -6.548684            -6.468324
| 67>   H                      4.557768             -6.491265            -6.276443
| 68>   H                      4.387833             -8.448434            -6.996690
| 69>   H                      2.867998             -8.443827            -6.204691
| 70>   H                      2.986948             -7.961744            -7.814579
| 71> *
| 72>
| 73>                          ****END OF INPUT****
 Total Charge           Charge          ....    0
 Multiplicity           Mult            ....    1
 Number of Electrons    NEL             ....   36
Dispersion correction           -0.001108125
FINAL SINGLE POINT ENERGY      -231.466110740147
Dispersion correction           -0.000265631
FINAL SINGLE POINT ENERGY      -115.732818616787

CARTESIAN COORDINATES (ANGSTROEM)
---------------------------------
  C      6.824095   -4.085569   -8.586297
  O      6.613971   -4.489802   -7.269020
  H      6.635865   -3.771162   -6.595867
  H      5.963133   -3.488712   -9.022146
  H      7.700060   -3.488874   -8.759919
  H      6.991725   -4.954480   -9.156936
  C      3.470945   -7.871248   -6.865342
  O      3.665469   -6.548684   -6.468324
  H      4.557768   -6.491265   -6.276443
  H      4.387833   -8.448434   -6.996690
  H      2.867998   -8.443827   -6.204691
  H      2.986948   -7.961744   -7.814579

 Multiplicity           Mult            ....    1
 Number of Electrons    NEL             ....   18
 Basis Dimension        Dim             ....  172

ORBITAL ENERGIES
----------------

  NO   OCC          E(Eh)            E(eV)
   0   2.0000     -19.229890      -523.2719
   1   2.0000     -10.304996      -280.4132
   2   2.0000      -1.155194       -31.4344
   3   2.0000      -0.804934       -21.9034
   4   2.0000      -0.624414       -16.9912
   5   2.0000      -0.543511       -14.7897
   6   2.0000      -0.534903       -14.5554
   7   2.0000      -0.438591       -11.9347
   8   2.0000      -0.376921       -10.2565
   9   0.0000       0.079926         2.1749
  10   0.0000       0.123129         3.3505
  11   0.0000       0.150152         4.0858
  12   0.0000       0.172346         4.6898
  13   0.0000       0.197485         5.3738

MULLIKEN ATOMIC CHARGES
-----------------------
   0 C :   -0.001746
   1 O :   -0.000097
   2 H :   -0.000005
   3 H :    0.000131
   4 H :   -0.000039
   5 H :    0.000186
   6 C :   -0.173512
   7 O :   -0.450949
   8 H :    0.309711
   9 H :    0.101430
  10 H :    0.105087
  11 H :    0.109803
Sum of atomic charges:    0.0000000

LOEWDIN ATOMIC CHARGES
----------------------
   0 C :   -0.000743
   1 O :   -0.001107
   2 H :   -0.000133
   3 H :   -0.000034
   4 H :   -0.000033
   5 H :   -0.000034
   6 C :   -0.394812
   7 O :   -0.033046
   8 H :    0.143610
   9 H :    0.098022
  10 H :    0.091228
  11 H :    0.097081

  Mayer bond orders larger than 0.1
B(  6-C ,  7-O ) :   1.0174 B(  6-C ,  9-H ) :   0.9880 B(  6-C , 10-H ) :   0.9778
B(  6-C , 11-H ) :   0.9770 B(  7-O ,  8-H ) :   0.9112

Dispersion correction           -0.000235997
FINAL SINGLE POINT ENERGY      -115.730710633597

DIPOLE MOMENT
-------------
                                X             Y             Z
Electronic contribution:      0.13125       1.87025       0.56814
Nuclear contribution   :      0.38838      -2.35387      -0.60249
                        -----------------------------------------
Total Dipole Moment    :      0.51963      -0.48362      -0.03435
                        -----------------------------------------
Magnitude (a.u.)       :      0.71069
Magnitude (Debye)      :      1.80642

Rotational constants in cm-1:     4.645443     0.848260     0.817129
Rotational constants in MHz : 139266.891417 25430.209063 24496.916359

                             ****ORCA TERMINATED NORMALLY****
TOTAL RUN TIME: 0 days 0 hours 1 minutes 4 seconds 324 msec
