                         Program Version 4.1.2  - RELEASE  -
|  1> #Run DFT-D3 single point of the dimer
|  2> ! wB97X-D3 def2-TZVP TIGHTSCF CHELPG PMODEL PAL8
|  3>
|  4> %base "22-190_DFT_AB"
|  5>
|  6> %scf
|  7> MaxIter 1000
|  8> end
|  9>
| 10> * xyz 0 1
| 11>   C                      -0.175415            3.465032             -7.904652
| 12>   O                      0.826908             3.259719             -6.856385
| 13>   H                      0.711546             2.370965             -6.441981
| 14>   H                      -1.169431            3.420559             -7.469263
| 15>   H                      -0.150010            4.457220             -8.371209
| 16>   H                      -0.103712            2.536777             -8.615418
| 17>   C                      2.918165             5.299627             -5.197540
| 18>   O                      3.253149             4.996970             -6.525041
| 19>   H                      2.408468             4.743285             -6.901671
| 20>   H                      2.596880             6.344915             -4.937334
| 21>   H                      2.037394             4.738800             -4.948837
| 22>   H                      3.780129             5.006225             -4.529170
| 23> *
| 24>
| 25> #Run DFT-D3 single point of the molecule with dimer basis set
| 26> $new_job
| 27> %base "22-190_DFT_A"
| 28> ! wB97X-D3 def2-TZVP TIGHTSCF CHELPG PMODEL
| 29>
| 30> %scf
| 31> MaxIter 1000
| 32> end
| 33>
| 34> * xyz 0 1
| 35>   C                      -0.175415            3.465032             -7.904652
| 36>   O                      0.826908             3.259719             -6.856385
| 37>   H                      0.711546             2.370965             -6.441981
| 38>   H                      -1.169431            3.420559             -7.469263
| 39>   H                      -0.150010            4.457220             -8.371209
| 40>   H                      -0.103712            2.536777             -8.615418
| 41>   C                    : 2.918165             5.299627             -5.197540
| 42>   O                    : 3.253149             4.996970             -6.525041
| 43>   H                    : 2.408468             4.743285             -6.901671
| 44>   H                    : 2.596880             6.344915             -4.937334
| 45>   H                    : 2.037394             4.738800             -4.948837
| 46>   H                    : 3.780129             5.006225             -4.529170
| 47> *
| 48>
| 49> #Run DFT-D3 single point of the particle with dimer basis set
| 50> $new_job
| 51> %base "22-190_DFT_B"
| 52> ! wB97X-D3 def2-TZVP TIGHTSCF CHELPG PMODEL
| 53>
| 54> %scf
| 55> MaxIter 1000
| 56> end
| 57>
| 58> * xyz 0 1
| 59>   C                    : -0.175415            3.465032             -7.904652
| 60>   O                    : 0.826908             3.259719             -6.856385
| 61>   H                    : 0.711546             2.370965             -6.441981
| 62>   H                    : -1.169431            3.420559             -7.469263
| 63>   H                    : -0.150010            4.457220             -8.371209
| 64>   H                    : -0.103712            2.536777             -8.615418
| 65>   C                      2.918165             5.299627             -5.197540
| 66>   O                      3.253149             4.996970             -6.525041
| 67>   H                      2.408468             4.743285             -6.901671
| 68>   H                      2.596880             6.344915             -4.937334
| 69>   H                      2.037394             4.738800             -4.948837
| 70>   H                      3.780129             5.006225             -4.529170
| 71> *
| 72>
| 73>                          ****END OF INPUT****
 Total Charge           Charge          ....    0
 Multiplicity           Mult            ....    1
 Number of Electrons    NEL             ....   36
Dispersion correction           -0.001806335
FINAL SINGLE POINT ENERGY      -231.464448339490
Dispersion correction           -0.000266381
FINAL SINGLE POINT ENERGY      -115.726567031652

CARTESIAN COORDINATES (ANGSTROEM)
---------------------------------
  C     -0.175415    3.465032   -7.904652
  O      0.826908    3.259719   -6.856385
  H      0.711546    2.370965   -6.441981
  H     -1.169431    3.420559   -7.469263
  H     -0.150010    4.457220   -8.371209
  H     -0.103712    2.536777   -8.615418
  C      2.918165    5.299627   -5.197540
  O      3.253149    4.996970   -6.525041
  H      2.408468    4.743285   -6.901671
  H      2.596880    6.344915   -4.937334
  H      2.037394    4.738800   -4.948837
  H      3.780129    5.006225   -4.529170

 Multiplicity           Mult            ....    1
 Number of Electrons    NEL             ....   18
 Basis Dimension        Dim             ....  172

ORBITAL ENERGIES
----------------

  NO   OCC          E(Eh)            E(eV)
   0   2.0000     -19.235156      -523.4152
   1   2.0000     -10.317427      -280.7515
   2   2.0000      -1.146750       -31.2047
   3   2.0000      -0.789793       -21.4914
   4   2.0000      -0.620755       -16.8916
   5   2.0000      -0.535458       -14.5706
   6   2.0000      -0.527347       -14.3498
   7   2.0000      -0.440372       -11.9831
   8   2.0000      -0.373416       -10.1612
   9   0.0000       0.066363         1.8058
  10   0.0000       0.130116         3.5406
  11   0.0000       0.146976         3.9994
  12   0.0000       0.158454         4.3118
  13   0.0000       0.190365         5.1801

MULLIKEN ATOMIC CHARGES
-----------------------
   0 C :   -0.001324
   1 O :   -0.003531
   2 H :   -0.000095
   3 H :   -0.000007
   4 H :   -0.000401
   5 H :    0.000053
   6 C :   -0.172850
   7 O :   -0.449988
   8 H :    0.314420
   9 H :    0.094154
  10 H :    0.102303
  11 H :    0.117266
Sum of atomic charges:   -0.0000000

LOEWDIN ATOMIC CHARGES
----------------------
   0 C :   -0.002516
   1 O :   -0.012229
   2 H :   -0.000673
   3 H :   -0.000032
   4 H :   -0.000470
   5 H :   -0.000033
   6 C :   -0.403886
   7 O :   -0.055845
   8 H :    0.174987
   9 H :    0.097181
  10 H :    0.090414
  11 H :    0.113100

  Mayer bond orders larger than 0.1
B(  6-C ,  7-O ) :   1.0074 B(  6-C ,  9-H ) :   0.9643 B(  6-C , 10-H ) :   0.9885
B(  6-C , 11-H ) :   0.9746 B(  7-O ,  8-H ) :   0.9094

Dispersion correction           -0.000240727
FINAL SINGLE POINT ENERGY      -115.730520655132

DIPOLE MOMENT
-------------
                                X             Y             Z
Electronic contribution:      0.65033      -0.34015      -1.78852
Nuclear contribution   :     -1.32174       0.26546       2.04577
                        -----------------------------------------
Total Dipole Moment    :     -0.67141      -0.07469       0.25725
                        -----------------------------------------
Magnitude (a.u.)       :      0.72287
Magnitude (Debye)      :      1.83740

Rotational constants in cm-1:     4.228700     0.845924     0.806632
Rotational constants in MHz : 126773.222769 25360.153991 24182.231253

                             ****ORCA TERMINATED NORMALLY****
TOTAL RUN TIME: 0 days 0 hours 1 minutes 8 seconds 96 msec
