                         Program Version 4.1.2  - RELEASE  -
|  1> #Run DFT-D3 single point of the dimer
|  2> ! wB97X-D3 def2-TZVP TIGHTSCF CHELPG PMODEL PAL8
|  3>
|  4> %base "4-24_DFT_AB"
|  5>
|  6> %scf
|  7> MaxIter 1000
|  8> end
|  9>
| 10> * xyz 0 1
| 11>   C                      1.278964             -10.654822           2.337766
| 12>   O                      1.975469             -10.763566           3.561013
| 13>   H                      2.763265             -11.256909           3.348373
| 14>   H                      0.900062             -11.560758           2.008515
| 15>   H                      0.551293             -9.905268            2.334664
| 16>   H                      2.032881             -10.389157           1.510708
| 17>   C                      0.645642             -10.496327           7.559988
| 18>   O                      -0.698575            -10.414927           8.049094
| 19>   H                      -0.536633            -9.940468            8.901263
| 20>   H                      0.634710             -11.184266           6.692741
| 21>   H                      0.928919             -9.559199            7.115989
| 22>   H                      1.313122             -10.855681           8.358258
| 23> *
| 24>
| 25> #Run DFT-D3 single point of the molecule with dimer basis set
| 26> $new_job
| 27> %base "4-24_DFT_A"
| 28> ! wB97X-D3 def2-TZVP TIGHTSCF CHELPG PMODEL
| 29>
| 30> %scf
| 31> MaxIter 1000
| 32> end
| 33>
| 34> * xyz 0 1
| 35>   C                      1.278964             -10.654822           2.337766
| 36>   O                      1.975469             -10.763566           3.561013
| 37>   H                      2.763265             -11.256909           3.348373
| 38>   H                      0.900062             -11.560758           2.008515
| 39>   H                      0.551293             -9.905268            2.334664
| 40>   H                      2.032881             -10.389157           1.510708
| 41>   C                    : 0.645642             -10.496327           7.559988
| 42>   O                    : -0.698575            -10.414927           8.049094
| 43>   H                    : -0.536633            -9.940468            8.901263
| 44>   H                    : 0.634710             -11.184266           6.692741
| 45>   H                    : 0.928919             -9.559199            7.115989
| 46>   H                    : 1.313122             -10.855681           8.358258
| 47> *
| 48>
| 49> #Run DFT-D3 single point of the particle with dimer basis set
| 50> $new_job
| 51> %base "4-24_DFT_B"
| 52> ! wB97X-D3 def2-TZVP TIGHTSCF CHELPG PMODEL
| 53>
| 54> %scf
| 55> MaxIter 1000
| 56> end
| 57>
| 58> * xyz 0 1
| 59>   C                    : 1.278964             -10.654822           2.337766
| 60>   O                    : 1.975469             -10.763566           3.561013
| 61>   H                    : 2.763265             -11.256909           3.348373
| 62>   H                    : 0.900062             -11.560758           2.008515
| 63>   H                    : 0.551293             -9.905268            2.334664
| 64>   H                    : 2.032881             -10.389157           1.510708
| 65>   C                      0.645642             -10.496327           7.559988
| 66>   O                      -0.698575            -10.414927           8.049094
| 67>   H                      -0.536633            -9.940468            8.901263
| 68>   H                      0.634710             -11.184266           6.692741
| 69>   H                      0.928919             -9.559199            7.115989
| 70>   H                      1.313122             -10.855681           8.358258
| 71> *
| 72>
| 73>                          ****END OF INPUT****
 Total Charge           Charge          ....    0
 Multiplicity           Mult            ....    1
 Number of Electrons    NEL             ....   36
Dispersion correction           -0.000844083
FINAL SINGLE POINT ENERGY      -231.462566204744
Dispersion correction           -0.000217317
FINAL SINGLE POINT ENERGY      -115.729350987213

CARTESIAN COORDINATES (ANGSTROEM)
---------------------------------
  C      1.278964  -10.654822    2.337766
  O      1.975469  -10.763566    3.561013
  H      2.763265  -11.256909    3.348373
  H      0.900062  -11.560758    2.008515
  H      0.551293   -9.905268    2.334664
  H      2.032881  -10.389157    1.510708
  C      0.645642  -10.496327    7.559988
  O     -0.698575  -10.414927    8.049094
  H     -0.536633   -9.940468    8.901263
  H      0.634710  -11.184266    6.692741
  H      0.928919   -9.559199    7.115989
  H      1.313122  -10.855681    8.358258

 Multiplicity           Mult            ....    1
 Number of Electrons    NEL             ....   18
 Basis Dimension        Dim             ....  172

ORBITAL ENERGIES
----------------

  NO   OCC          E(Eh)            E(eV)
   0   2.0000     -19.232521      -523.3435
   1   2.0000     -10.314336      -280.6674
   2   2.0000      -1.129793       -30.7432
   3   2.0000      -0.789433       -21.4816
   4   2.0000      -0.600756       -16.3474
   5   2.0000      -0.549669       -14.9573
   6   2.0000      -0.517580       -14.0841
   7   2.0000      -0.439755       -11.9663
   8   2.0000      -0.373846       -10.1729
   9   0.0000       0.083818         2.2808
  10   0.0000       0.111302         3.0287
  11   0.0000       0.145789         3.9671
  12   0.0000       0.171758         4.6738
  13   0.0000       0.188369         5.1258

MULLIKEN ATOMIC CHARGES
-----------------------
   0 C :   -0.000076
   1 O :   -0.000007
   2 H :   -0.000019
   3 H :   -0.000004
   4 H :    0.000005
   5 H :   -0.000000
   6 C :   -0.175736
   7 O :   -0.466723
   8 H :    0.312381
   9 H :    0.114751
  10 H :    0.105365
  11 H :    0.110063
Sum of atomic charges:    0.0000000

LOEWDIN ATOMIC CHARGES
----------------------
   0 C :   -0.000086
   1 O :   -0.000289
   2 H :   -0.000041
   3 H :   -0.000003
   4 H :   -0.000004
   5 H :   -0.000002
   6 C :   -0.380768
   7 O :   -0.105067
   8 H :    0.186214
   9 H :    0.110124
  10 H :    0.091322
  11 H :    0.098602

  Mayer bond orders larger than 0.1
B(  6-C ,  7-O ) :   1.0008 B(  6-C ,  9-H ) :   0.9761 B(  6-C , 10-H ) :   0.9747
B(  6-C , 11-H ) :   0.9775 B(  7-O ,  8-H ) :   0.9024

Dispersion correction           -0.000220699
FINAL SINGLE POINT ENERGY      -115.732167647354

DIPOLE MOMENT
-------------
                                X             Y             Z
Electronic contribution:     -1.68686       0.03725       0.54063
Nuclear contribution   :      2.31008       0.21339      -0.23393
                        -----------------------------------------
Total Dipole Moment    :      0.62322       0.25064       0.30669
                        -----------------------------------------
Magnitude (a.u.)       :      0.73843
Magnitude (Debye)      :      1.87694

Rotational constants in cm-1:     4.094589     0.831128     0.795399
Rotational constants in MHz : 122752.687596 24916.594583 23845.460204

                             ****ORCA TERMINATED NORMALLY****
TOTAL RUN TIME: 0 days 0 hours 1 minutes 33 seconds 600 msec
