                         Program Version 4.1.2  - RELEASE  -
|  1> #Run DFT-D3 single point of the dimer
|  2> ! wB97X-D3 def2-TZVP TIGHTSCF CHELPG PMODEL PAL8
|  3>
|  4> %base "8-166_DFT_AB"
|  5>
|  6> %scf
|  7> MaxIter 1000
|  8> end
|  9>
| 10> * xyz 0 1
| 11>   C                      -2.232339            6.120175             1.436863
| 12>   O                      -1.684877            5.426233             2.544154
| 13>   H                      -0.759028            5.616553             2.607638
| 14>   H                      -1.450779            6.683787             0.962567
| 15>   H                      -2.595102            5.439515             0.614280
| 16>   H                      -3.038450            6.785370             1.740800
| 17>   C                      0.794844             5.585761             5.034224
| 18>   O                      0.764898             4.962424             3.767976
| 19>   H                      1.396828             4.241649             3.749836
| 20>   H                      0.183799             6.494684             4.973592
| 21>   H                      0.403332             4.896322             5.844179
| 22>   H                      1.791000             5.834054             5.307899
| 23> *
| 24>
| 25> #Run DFT-D3 single point of the molecule with dimer basis set
| 26> $new_job
| 27> %base "8-166_DFT_A"
| 28> ! wB97X-D3 def2-TZVP TIGHTSCF CHELPG PMODEL
| 29>
| 30> %scf
| 31> MaxIter 1000
| 32> end
| 33>
| 34> * xyz 0 1
| 35>   C                      -2.232339            6.120175             1.436863
| 36>   O                      -1.684877            5.426233             2.544154
| 37>   H                      -0.759028            5.616553             2.607638
| 38>   H                      -1.450779            6.683787             0.962567
| 39>   H                      -2.595102            5.439515             0.614280
| 40>   H                      -3.038450            6.785370             1.740800
| 41>   C                    : 0.794844             5.585761             5.034224
| 42>   O                    : 0.764898             4.962424             3.767976
| 43>   H                    : 1.396828             4.241649             3.749836
| 44>   H                    : 0.183799             6.494684             4.973592
| 45>   H                    : 0.403332             4.896322             5.844179
| 46>   H                    : 1.791000             5.834054             5.307899
| 47> *
| 48>
| 49> #Run DFT-D3 single point of the particle with dimer basis set
| 50> $new_job
| 51> %base "8-166_DFT_B"
| 52> ! wB97X-D3 def2-TZVP TIGHTSCF CHELPG PMODEL
| 53>
| 54> %scf
| 55> MaxIter 1000
| 56> end
| 57>
| 58> * xyz 0 1
| 59>   C                    : -2.232339            6.120175             1.436863
| 60>   O                    : -1.684877            5.426233             2.544154
| 61>   H                    : -0.759028            5.616553             2.607638
| 62>   H                    : -1.450779            6.683787             0.962567
| 63>   H                    : -2.595102            5.439515             0.614280
| 64>   H                    : -3.038450            6.785370             1.740800
| 65>   C                      0.794844             5.585761             5.034224
| 66>   O                      0.764898             4.962424             3.767976
| 67>   H                      1.396828             4.241649             3.749836
| 68>   H                      0.183799             6.494684             4.973592
| 69>   H                      0.403332             4.896322             5.844179
| 70>   H                      1.791000             5.834054             5.307899
| 71> *
| 72>
| 73>                          ****END OF INPUT****
 Total Charge           Charge          ....    0
 Multiplicity           Mult            ....    1
 Number of Electrons    NEL             ....   36
Dispersion correction           -0.001557073
FINAL SINGLE POINT ENERGY      -231.475217530804
Dispersion correction           -0.000250699
FINAL SINGLE POINT ENERGY      -115.733995924557

CARTESIAN COORDINATES (ANGSTROEM)
---------------------------------
  C     -2.232339    6.120175    1.436863
  O     -1.684877    5.426233    2.544154
  H     -0.759028    5.616553    2.607638
  H     -1.450779    6.683787    0.962567
  H     -2.595102    5.439515    0.614280
  H     -3.038450    6.785370    1.740800
  C      0.794844    5.585761    5.034224
  O      0.764898    4.962424    3.767976
  H      1.396828    4.241649    3.749836
  H      0.183799    6.494684    4.973592
  H      0.403332    4.896322    5.844179
  H      1.791000    5.834054    5.307899

 Multiplicity           Mult            ....    1
 Number of Electrons    NEL             ....   18
 Basis Dimension        Dim             ....  172

ORBITAL ENERGIES
----------------

  NO   OCC          E(Eh)            E(eV)
   0   2.0000     -19.228931      -523.2458
   1   2.0000     -10.314193      -280.6635
   2   2.0000      -1.136230       -30.9184
   3   2.0000      -0.795055       -21.6345
   4   2.0000      -0.613821       -16.7029
   5   2.0000      -0.537931       -14.6378
   6   2.0000      -0.528456       -14.3800
   7   2.0000      -0.435134       -11.8406
   8   2.0000      -0.371690       -10.1142
   9   0.0000       0.099573         2.7095
  10   0.0000       0.119787         3.2596
  11   0.0000       0.154945         4.2163
  12   0.0000       0.187091         5.0910
  13   0.0000       0.201835         5.4922

MULLIKEN ATOMIC CHARGES
-----------------------
   0 C :    0.000351
   1 O :    0.001108
   2 H :   -0.010148
   3 H :   -0.000187
   4 H :    0.000011
   5 H :   -0.000042
   6 C :   -0.150172
   7 O :   -0.469184
   8 H :    0.309675
   9 H :    0.121842
  10 H :    0.094907
  11 H :    0.101839
Sum of atomic charges:    0.0000000

LOEWDIN ATOMIC CHARGES
----------------------
   0 C :   -0.000602
   1 O :   -0.008925
   2 H :   -0.032236
   3 H :   -0.000061
   4 H :   -0.000009
   5 H :   -0.000017
   6 C :   -0.380390
   7 O :   -0.042739
   8 H :    0.165625
   9 H :    0.111757
  10 H :    0.100418
  11 H :    0.087179

  Mayer bond orders larger than 0.1
B(  6-C ,  7-O ) :   0.9894 B(  6-C ,  9-H ) :   0.9759 B(  6-C , 10-H ) :   0.9720
B(  6-C , 11-H ) :   0.9752 B(  7-O ,  8-H ) :   0.8982

Dispersion correction           -0.000236896
FINAL SINGLE POINT ENERGY      -115.735999667074

DIPOLE MOMENT
-------------
                                X             Y             Z
Electronic contribution:     -0.10305      -0.63979      -1.66130
Nuclear contribution   :      0.54406       0.44509       2.14904
                        -----------------------------------------
Total Dipole Moment    :      0.44101      -0.19471       0.48774
                        -----------------------------------------
Magnitude (a.u.)       :      0.68578
Magnitude (Debye)      :      1.74312

Rotational constants in cm-1:     4.247894     0.836269     0.803340
Rotational constants in MHz : 127348.653263 25070.710966 24083.531698

                             ****ORCA TERMINATED NORMALLY****
TOTAL RUN TIME: 0 days 0 hours 0 minutes 45 seconds 942 msec
