                         Program Version 4.1.2  - RELEASE  -
|  1> #Run DFT-D3 single point of the dimer
|  2> ! wB97X-D3 def2-TZVP TIGHTSCF CHELPG PMODEL PAL8
|  3>
|  4> %base "5-27_DFT_AB"
|  5>
|  6> %scf
|  7> MaxIter 1000
|  8> end
|  9>
| 10> * xyz 0 1
| 11>   C                      2.739132             -3.942480            -1.008213
| 12>   O                      1.753076             -3.898102            -0.067553
| 13>   H                      2.322324             -4.076974            0.640020
| 14>   H                      3.466281             -4.735064            -0.636827
| 15>   H                      2.402265             -4.144417            -2.020121
| 16>   H                      3.256188             -3.012980            -0.955926
| 17>   C                      4.019205             -4.668612            -4.497341
| 18>   O                      5.234363             -5.378405            -4.296528
| 19>   H                      5.822919             -4.664041            -4.023461
| 20>   H                      3.331050             -5.228727            -5.111580
| 21>   H                      3.541176             -4.341142            -3.567902
| 22>   H                      4.146793             -3.760638            -5.083770
| 23> *
| 24>
| 25> #Run DFT-D3 single point of the molecule with dimer basis set
| 26> $new_job
| 27> %base "5-27_DFT_A"
| 28> ! wB97X-D3 def2-TZVP TIGHTSCF CHELPG PMODEL
| 29>
| 30> %scf
| 31> MaxIter 1000
| 32> end
| 33>
| 34> * xyz 0 1
| 35>   C                      2.739132             -3.942480            -1.008213
| 36>   O                      1.753076             -3.898102            -0.067553
| 37>   H                      2.322324             -4.076974            0.640020
| 38>   H                      3.466281             -4.735064            -0.636827
| 39>   H                      2.402265             -4.144417            -2.020121
| 40>   H                      3.256188             -3.012980            -0.955926
| 41>   C                    : 4.019205             -4.668612            -4.497341
| 42>   O                    : 5.234363             -5.378405            -4.296528
| 43>   H                    : 5.822919             -4.664041            -4.023461
| 44>   H                    : 3.331050             -5.228727            -5.111580
| 45>   H                    : 3.541176             -4.341142            -3.567902
| 46>   H                    : 4.146793             -3.760638            -5.083770
| 47> *
| 48>
| 49> #Run DFT-D3 single point of the particle with dimer basis set
| 50> $new_job
| 51> %base "5-27_DFT_B"
| 52> ! wB97X-D3 def2-TZVP TIGHTSCF CHELPG PMODEL
| 53>
| 54> %scf
| 55> MaxIter 1000
| 56> end
| 57>
| 58> * xyz 0 1
| 59>   C                    : 2.739132             -3.942480            -1.008213
| 60>   O                    : 1.753076             -3.898102            -0.067553
| 61>   H                    : 2.322324             -4.076974            0.640020
| 62>   H                    : 3.466281             -4.735064            -0.636827
| 63>   H                    : 2.402265             -4.144417            -2.020121
| 64>   H                    : 3.256188             -3.012980            -0.955926
| 65>   C                      4.019205             -4.668612            -4.497341
| 66>   O                      5.234363             -5.378405            -4.296528
| 67>   H                      5.822919             -4.664041            -4.023461
| 68>   H                      3.331050             -5.228727            -5.111580
| 69>   H                      3.541176             -4.341142            -3.567902
| 70>   H                      4.146793             -3.760638            -5.083770
| 71> *
| 72>
| 73>                          ****END OF INPUT****
 Total Charge           Charge          ....    0
 Multiplicity           Mult            ....    1
 Number of Electrons    NEL             ....   36
Dispersion correction           -0.001364582
FINAL SINGLE POINT ENERGY      -231.452908498160
Dispersion correction           -0.000170215
FINAL SINGLE POINT ENERGY      -115.719856263147

CARTESIAN COORDINATES (ANGSTROEM)
---------------------------------
  C      2.739132   -3.942480   -1.008213
  O      1.753076   -3.898102   -0.067553
  H      2.322324   -4.076974    0.640020
  H      3.466281   -4.735064   -0.636827
  H      2.402265   -4.144417   -2.020121
  H      3.256188   -3.012980   -0.955926
  C      4.019205   -4.668612   -4.497341
  O      5.234363   -5.378405   -4.296528
  H      5.822919   -4.664041   -4.023461
  H      3.331050   -5.228727   -5.111580
  H      3.541176   -4.341142   -3.567902
  H      4.146793   -3.760638   -5.083770

 Multiplicity           Mult            ....    1
 Number of Electrons    NEL             ....   18
 Basis Dimension        Dim             ....  172

ORBITAL ENERGIES
----------------

  NO   OCC          E(Eh)            E(eV)
   0   2.0000     -19.235038      -523.4120
   1   2.0000     -10.311748      -280.5969
   2   2.0000      -1.138664       -30.9846
   3   2.0000      -0.795999       -21.6602
   4   2.0000      -0.610431       -16.6107
   5   2.0000      -0.543581       -14.7916
   6   2.0000      -0.523466       -14.2442
   7   2.0000      -0.441748       -12.0206
   8   2.0000      -0.376483       -10.2446
   9   0.0000       0.084833         2.3084
  10   0.0000       0.118982         3.2377
  11   0.0000       0.150893         4.1060
  12   0.0000       0.180773         4.9191
  13   0.0000       0.195294         5.3142

MULLIKEN ATOMIC CHARGES
-----------------------
   0 C :    0.007219
   1 O :    0.000250
   2 H :    0.000064
   3 H :   -0.000431
   4 H :   -0.001949
   5 H :   -0.000897
   6 C :   -0.174056
   7 O :   -0.461695
   8 H :    0.315591
   9 H :    0.120885
  10 H :    0.084951
  11 H :    0.110068
Sum of atomic charges:    0.0000000

LOEWDIN ATOMIC CHARGES
----------------------
   0 C :   -0.009427
   1 O :   -0.000019
   2 H :   -0.000023
   3 H :   -0.000307
   4 H :   -0.012119
   5 H :   -0.000457
   6 C :   -0.381218
   7 O :   -0.078105
   8 H :    0.176090
   9 H :    0.105404
  10 H :    0.105166
  11 H :    0.095014

  Mayer bond orders larger than 0.1
B(  6-C ,  7-O ) :   0.9986 B(  6-C ,  9-H ) :   0.9768 B(  6-C , 10-H ) :   0.9671
B(  6-C , 11-H ) :   0.9835 B(  7-O ,  8-H ) :   0.9027

Dispersion correction           -0.000232779
FINAL SINGLE POINT ENERGY      -115.733895127048

DIPOLE MOMENT
-------------
                                X             Y             Z
Electronic contribution:      1.53719      -1.15927       0.27283
Nuclear contribution   :     -1.64080       1.88202      -0.20869
                        -----------------------------------------
Total Dipole Moment    :     -0.10362       0.72276       0.06414
                        -----------------------------------------
Magnitude (a.u.)       :      0.73296
Magnitude (Debye)      :      1.86303

Rotational constants in cm-1:     4.348766     0.825271     0.795708
Rotational constants in MHz : 130372.733919 24740.999390 23854.716453

                             ****ORCA TERMINATED NORMALLY****
TOTAL RUN TIME: 0 days 0 hours 0 minutes 55 seconds 987 msec
