                         Program Version 4.1.2  - RELEASE  -
|  1> #Run DFT-D3 single point of the dimer
|  2> ! wB97X-D3 def2-TZVP TIGHTSCF CHELPG PMODEL PAL8
|  3>
|  4> %base "3-21_DFT_AB"
|  5>
|  6> %scf
|  7> MaxIter 1000
|  8> end
|  9>
| 10> * xyz 0 1
| 11>   C                      -1.479890            -2.782146            -10.347695
| 12>   O                      -2.119262            -3.328411            -11.446586
| 13>   H                      -1.445049            -3.506653            -12.123038
| 14>   H                      -2.045989            -2.790401            -9.457301
| 15>   H                      -0.487859            -3.274771            -10.077993
| 16>   H                      -1.208709            -1.733125            -10.415487
| 17>   C                      -4.983724            -1.861540            -7.037725
| 18>   O                      -5.308556            -0.500746            -6.993364
| 19>   H                      -5.230599            -0.272961            -7.890385
| 20>   H                      -4.141318            -2.148880            -7.659056
| 21>   H                      -4.764248            -2.337265            -6.067641
| 22>   H                      -5.873911            -2.396272            -7.501663
| 23> *
| 24>
| 25> #Run DFT-D3 single point of the molecule with dimer basis set
| 26> $new_job
| 27> %base "3-21_DFT_A"
| 28> ! wB97X-D3 def2-TZVP TIGHTSCF CHELPG PMODEL
| 29>
| 30> %scf
| 31> MaxIter 1000
| 32> end
| 33>
| 34> * xyz 0 1
| 35>   C                      -1.479890            -2.782146            -10.347695
| 36>   O                      -2.119262            -3.328411            -11.446586
| 37>   H                      -1.445049            -3.506653            -12.123038
| 38>   H                      -2.045989            -2.790401            -9.457301
| 39>   H                      -0.487859            -3.274771            -10.077993
| 40>   H                      -1.208709            -1.733125            -10.415487
| 41>   C                    : -4.983724            -1.861540            -7.037725
| 42>   O                    : -5.308556            -0.500746            -6.993364
| 43>   H                    : -5.230599            -0.272961            -7.890385
| 44>   H                    : -4.141318            -2.148880            -7.659056
| 45>   H                    : -4.764248            -2.337265            -6.067641
| 46>   H                    : -5.873911            -2.396272            -7.501663
| 47> *
| 48>
| 49> #Run DFT-D3 single point of the particle with dimer basis set
| 50> $new_job
| 51> %base "3-21_DFT_B"
| 52> ! wB97X-D3 def2-TZVP TIGHTSCF CHELPG PMODEL
| 53>
| 54> %scf
| 55> MaxIter 1000
| 56> end
| 57>
| 58> * xyz 0 1
| 59>   C                    : -1.479890            -2.782146            -10.347695
| 60>   O                    : -2.119262            -3.328411            -11.446586
| 61>   H                    : -1.445049            -3.506653            -12.123038
| 62>   H                    : -2.045989            -2.790401            -9.457301
| 63>   H                    : -0.487859            -3.274771            -10.077993
| 64>   H                    : -1.208709            -1.733125            -10.415487
| 65>   C                      -4.983724            -1.861540            -7.037725
| 66>   O                      -5.308556            -0.500746            -6.993364
| 67>   H                      -5.230599            -0.272961            -7.890385
| 68>   H                      -4.141318            -2.148880            -7.659056
| 69>   H                      -4.764248            -2.337265            -6.067641
| 70>   H                      -5.873911            -2.396272            -7.501663
| 71> *
| 72>
| 73>                          ****END OF INPUT****
 Total Charge           Charge          ....    0
 Multiplicity           Mult            ....    1
 Number of Electrons    NEL             ....   36
Dispersion correction           -0.000896050
FINAL SINGLE POINT ENERGY      -231.461480426227
Dispersion correction           -0.000252274
FINAL SINGLE POINT ENERGY      -115.731297087721

CARTESIAN COORDINATES (ANGSTROEM)
---------------------------------
  C     -1.479890   -2.782146  -10.347695
  O     -2.119262   -3.328411  -11.446586
  H     -1.445049   -3.506653  -12.123038
  H     -2.045989   -2.790401   -9.457301
  H     -0.487859   -3.274771  -10.077993
  H     -1.208709   -1.733125  -10.415487
  C     -4.983724   -1.861540   -7.037725
  O     -5.308556   -0.500746   -6.993364
  H     -5.230599   -0.272961   -7.890385
  H     -4.141318   -2.148880   -7.659056
  H     -4.764248   -2.337265   -6.067641
  H     -5.873911   -2.396272   -7.501663

 Multiplicity           Mult            ....    1
 Number of Electrons    NEL             ....   18
 Basis Dimension        Dim             ....  172

ORBITAL ENERGIES
----------------

  NO   OCC          E(Eh)            E(eV)
   0   2.0000     -19.232479      -523.3424
   1   2.0000     -10.317273      -280.7473
   2   2.0000      -1.154419       -31.4133
   3   2.0000      -0.792988       -21.5783
   4   2.0000      -0.619260       -16.8509
   5   2.0000      -0.542281       -14.7562
   6   2.0000      -0.527838       -14.3632
   7   2.0000      -0.442610       -12.0440
   8   2.0000      -0.372182       -10.1276
   9   0.0000       0.080282         2.1846
  10   0.0000       0.117708         3.2030
  11   0.0000       0.149613         4.0712
  12   0.0000       0.166085         4.5194
  13   0.0000       0.182770         4.9734

MULLIKEN ATOMIC CHARGES
-----------------------
   0 C :   -0.000693
   1 O :    0.000000
   2 H :   -0.000001
   3 H :    0.001229
   4 H :    0.000029
   5 H :   -0.000008
   6 C :   -0.187067
   7 O :   -0.448230
   8 H :    0.311298
   9 H :    0.103329
  10 H :    0.120344
  11 H :    0.099769
Sum of atomic charges:   -0.0000000

LOEWDIN ATOMIC CHARGES
----------------------
   0 C :   -0.000526
   1 O :   -0.000004
   2 H :   -0.000000
   3 H :   -0.001760
   4 H :   -0.000001
   5 H :   -0.000011
   6 C :   -0.407891
   7 O :   -0.047928
   8 H :    0.155631
   9 H :    0.092096
  10 H :    0.108764
  11 H :    0.101632

  Mayer bond orders larger than 0.1
B(  6-C ,  7-O ) :   0.9959 B(  6-C ,  9-H ) :   0.9713 B(  6-C , 10-H ) :   0.9707
B(  6-C , 11-H ) :   0.9862 B(  7-O ,  8-H ) :   0.9079

Dispersion correction           -0.000226256
FINAL SINGLE POINT ENERGY      -115.729584010090

DIPOLE MOMENT
-------------
                                X             Y             Z
Electronic contribution:     -0.34391       1.94161       0.30013
Nuclear contribution   :      0.54464      -2.30141      -0.87609
                        -----------------------------------------
Total Dipole Moment    :      0.20073      -0.35980      -0.57597
                        -----------------------------------------
Magnitude (a.u.)       :      0.70816
Magnitude (Debye)      :      1.79999

Rotational constants in cm-1:     4.324155     0.841870     0.812341
Rotational constants in MHz : 129634.899045 25238.632105 24353.376733

                             ****ORCA TERMINATED NORMALLY****
TOTAL RUN TIME: 0 days 0 hours 6 minutes 22 seconds 325 msec
