                         Program Version 4.1.2  - RELEASE  -
|  1> #Run DFT-D3 single point of the dimer
|  2> ! wB97X-D3 def2-TZVP TIGHTSCF CHELPG PMODEL PAL8
|  3>
|  4> %base "12-184_DFT_AB"
|  5>
|  6> %scf
|  7> MaxIter 1000
|  8> end
|  9>
| 10> * xyz 0 1
| 11>   C                      1.004850             -7.973251            -4.730451
| 12>   O                      2.010199             -8.111811            -5.665440
| 13>   H                      2.740079             -8.411108            -5.097560
| 14>   H                      -0.051324            -8.105995            -5.161093
| 15>   H                      1.086488             -8.584173            -3.828320
| 16>   H                      1.030126             -6.951584            -4.336741
| 17>   C                      5.209246             -10.120723           -5.701148
| 18>   O                      4.037578             -10.757201           -5.220941
| 19>   H                      3.358062             -10.743566           -5.919133
| 20>   H                      5.900256             -9.825994            -4.963677
| 21>   H                      5.751556             -10.784558           -6.357159
| 22>   H                      4.989983             -9.157232            -6.158616
| 23> *
| 24>
| 25> #Run DFT-D3 single point of the molecule with dimer basis set
| 26> $new_job
| 27> %base "12-184_DFT_A"
| 28> ! wB97X-D3 def2-TZVP TIGHTSCF CHELPG PMODEL
| 29>
| 30> %scf
| 31> MaxIter 1000
| 32> end
| 33>
| 34> * xyz 0 1
| 35>   C                      1.004850             -7.973251            -4.730451
| 36>   O                      2.010199             -8.111811            -5.665440
| 37>   H                      2.740079             -8.411108            -5.097560
| 38>   H                      -0.051324            -8.105995            -5.161093
| 39>   H                      1.086488             -8.584173            -3.828320
| 40>   H                      1.030126             -6.951584            -4.336741
| 41>   C                    : 5.209246             -10.120723           -5.701148
| 42>   O                    : 4.037578             -10.757201           -5.220941
| 43>   H                    : 3.358062             -10.743566           -5.919133
| 44>   H                    : 5.900256             -9.825994            -4.963677
| 45>   H                    : 5.751556             -10.784558           -6.357159
| 46>   H                    : 4.989983             -9.157232            -6.158616
| 47> *
| 48>
| 49> #Run DFT-D3 single point of the particle with dimer basis set
| 50> $new_job
| 51> %base "12-184_DFT_B"
| 52> ! wB97X-D3 def2-TZVP TIGHTSCF CHELPG PMODEL
| 53>
| 54> %scf
| 55> MaxIter 1000
| 56> end
| 57>
| 58> * xyz 0 1
| 59>   C                    : 1.004850             -7.973251            -4.730451
| 60>   O                    : 2.010199             -8.111811            -5.665440
| 61>   H                    : 2.740079             -8.411108            -5.097560
| 62>   H                    : -0.051324            -8.105995            -5.161093
| 63>   H                    : 1.086488             -8.584173            -3.828320
| 64>   H                    : 1.030126             -6.951584            -4.336741
| 65>   C                      5.209246             -10.120723           -5.701148
| 66>   O                      4.037578             -10.757201           -5.220941
| 67>   H                      3.358062             -10.743566           -5.919133
| 68>   H                      5.900256             -9.825994            -4.963677
| 69>   H                      5.751556             -10.784558           -6.357159
| 70>   H                      4.989983             -9.157232            -6.158616
| 71> *
| 72>
| 73>                          ****END OF INPUT****
 Total Charge           Charge          ....    0
 Multiplicity           Mult            ....    1
 Number of Electrons    NEL             ....   36
Dispersion correction           -0.001704353
FINAL SINGLE POINT ENERGY      -231.467198243404
Dispersion correction           -0.000226704
FINAL SINGLE POINT ENERGY      -115.729639424274

CARTESIAN COORDINATES (ANGSTROEM)
---------------------------------
  C      1.004850   -7.973251   -4.730451
  O      2.010199   -8.111811   -5.665440
  H      2.740079   -8.411108   -5.097560
  H     -0.051324   -8.105995   -5.161093
  H      1.086488   -8.584173   -3.828320
  H      1.030126   -6.951584   -4.336741
  C      5.209246  -10.120723   -5.701148
  O      4.037578  -10.757201   -5.220941
  H      3.358062  -10.743566   -5.919133
  H      5.900256   -9.825994   -4.963677
  H      5.751556  -10.784558   -6.357159
  H      4.989983   -9.157232   -6.158616

 Multiplicity           Mult            ....    1
 Number of Electrons    NEL             ....   18
 Basis Dimension        Dim             ....  172

ORBITAL ENERGIES
----------------

  NO   OCC          E(Eh)            E(eV)
   0   2.0000     -19.231887      -523.3262
   1   2.0000     -10.306849      -280.4636
   2   2.0000      -1.131735       -30.7961
   3   2.0000      -0.802260       -21.8306
   4   2.0000      -0.606780       -16.5113
   5   2.0000      -0.549688       -14.9578
   6   2.0000      -0.531806       -14.4712
   7   2.0000      -0.426355       -11.6017
   8   2.0000      -0.376115       -10.2346
   9   0.0000       0.085154         2.3172
  10   0.0000       0.123605         3.3635
  11   0.0000       0.150107         4.0846
  12   0.0000       0.183675         4.9981
  13   0.0000       0.193109         5.2548

MULLIKEN ATOMIC CHARGES
-----------------------
   0 C :    0.000912
   1 O :   -0.001194
   2 H :   -0.005599
   3 H :    0.000115
   4 H :   -0.001257
   5 H :   -0.000116
   6 C :   -0.168811
   7 O :   -0.481264
   8 H :    0.321174
   9 H :    0.122748
  10 H :    0.109523
  11 H :    0.103769
Sum of atomic charges:    0.0000000

LOEWDIN ATOMIC CHARGES
----------------------
   0 C :   -0.001060
   1 O :   -0.002172
   2 H :   -0.008486
   3 H :   -0.000004
   4 H :   -0.000395
   5 H :   -0.000014
   6 C :   -0.379480
   7 O :   -0.078692
   8 H :    0.178814
   9 H :    0.100188
  10 H :    0.094537
  11 H :    0.096765

  Mayer bond orders larger than 0.1
B(  6-C ,  7-O ) :   0.9922 B(  6-C ,  9-H ) :   0.9717 B(  6-C , 10-H ) :   0.9836
B(  6-C , 11-H ) :   0.9804 B(  7-O ,  8-H ) :   0.8937

Dispersion correction           -0.000243735
FINAL SINGLE POINT ENERGY      -115.732592309207

DIPOLE MOMENT
-------------
                                X             Y             Z
Electronic contribution:     -1.43179      -0.88662       0.76737
Nuclear contribution   :      1.50061       1.16458      -1.38311
                        -----------------------------------------
Total Dipole Moment    :      0.06882       0.27796      -0.61574
                        -----------------------------------------
Magnitude (a.u.)       :      0.67907
Magnitude (Debye)      :      1.72606

Rotational constants in cm-1:     4.508506     0.817374     0.800034
Rotational constants in MHz : 135161.602424 24504.257487 23984.429373

                             ****ORCA TERMINATED NORMALLY****
TOTAL RUN TIME: 0 days 0 hours 1 minutes 14 seconds 624 msec
