                         Program Version 4.1.2  - RELEASE  -
|  1> #Run DFT-D3 single point of the dimer
|  2> ! wB97X-D3 def2-TZVP TIGHTSCF CHELPG PMODEL PAL8
|  3>
|  4> %base "8-112_DFT_AB"
|  5>
|  6> %scf
|  7> MaxIter 1000
|  8> end
|  9>
| 10> * xyz 0 1
| 11>   C                      8.297950             9.638053             6.999184
| 12>   O                      7.073123             9.026462             7.254794
| 13>   H                      6.756923             9.261665             8.121239
| 14>   H                      8.609197             9.209825             6.040132
| 15>   H                      8.162283             10.762873            6.849724
| 16>   H                      9.095038             9.417143             7.781061
| 17>   C                      5.754893             6.097062             8.882843
| 18>   O                      5.269778             6.465289             10.118696
| 19>   H                      5.525233             7.396811             10.175203
| 20>   H                      5.549808             5.035463             8.641466
| 21>   H                      5.309479             6.610149             8.022095
| 22>   H                      6.883333             6.227854             8.796637
| 23> *
| 24>
| 25> #Run DFT-D3 single point of the molecule with dimer basis set
| 26> $new_job
| 27> %base "8-112_DFT_A"
| 28> ! wB97X-D3 def2-TZVP TIGHTSCF CHELPG PMODEL
| 29>
| 30> %scf
| 31> MaxIter 1000
| 32> end
| 33>
| 34> * xyz 0 1
| 35>   C                      8.297950             9.638053             6.999184
| 36>   O                      7.073123             9.026462             7.254794
| 37>   H                      6.756923             9.261665             8.121239
| 38>   H                      8.609197             9.209825             6.040132
| 39>   H                      8.162283             10.762873            6.849724
| 40>   H                      9.095038             9.417143             7.781061
| 41>   C                    : 5.754893             6.097062             8.882843
| 42>   O                    : 5.269778             6.465289             10.118696
| 43>   H                    : 5.525233             7.396811             10.175203
| 44>   H                    : 5.549808             5.035463             8.641466
| 45>   H                    : 5.309479             6.610149             8.022095
| 46>   H                    : 6.883333             6.227854             8.796637
| 47> *
| 48>
| 49> #Run DFT-D3 single point of the particle with dimer basis set
| 50> $new_job
| 51> %base "8-112_DFT_B"
| 52> ! wB97X-D3 def2-TZVP TIGHTSCF CHELPG PMODEL
| 53>
| 54> %scf
| 55> MaxIter 1000
| 56> end
| 57>
| 58> * xyz 0 1
| 59>   C                    : 8.297950             9.638053             6.999184
| 60>   O                    : 7.073123             9.026462             7.254794
| 61>   H                    : 6.756923             9.261665             8.121239
| 62>   H                    : 8.609197             9.209825             6.040132
| 63>   H                    : 8.162283             10.762873            6.849724
| 64>   H                    : 9.095038             9.417143             7.781061
| 65>   C                      5.754893             6.097062             8.882843
| 66>   O                      5.269778             6.465289             10.118696
| 67>   H                      5.525233             7.396811             10.175203
| 68>   H                      5.549808             5.035463             8.641466
| 69>   H                      5.309479             6.610149             8.022095
| 70>   H                      6.883333             6.227854             8.796637
| 71> *
| 72>
| 73>                          ****END OF INPUT****
 Total Charge           Charge          ....    0
 Multiplicity           Mult            ....    1
 Number of Electrons    NEL             ....   36
Dispersion correction           -0.001519596
FINAL SINGLE POINT ENERGY      -231.467736375602
Dispersion correction           -0.000251256
FINAL SINGLE POINT ENERGY      -115.734740904594

CARTESIAN COORDINATES (ANGSTROEM)
---------------------------------
  C      8.297950    9.638053    6.999184
  O      7.073123    9.026462    7.254794
  H      6.756923    9.261665    8.121239
  H      8.609197    9.209825    6.040132
  H      8.162283   10.762873    6.849724
  H      9.095038    9.417143    7.781061
  C      5.754893    6.097062    8.882843
  O      5.269778    6.465289   10.118696
  H      5.525233    7.396811   10.175203
  H      5.549808    5.035463    8.641466
  H      5.309479    6.610149    8.022095
  H      6.883333    6.227854    8.796637

 Multiplicity           Mult            ....    1
 Number of Electrons    NEL             ....   18
 Basis Dimension        Dim             ....  172

ORBITAL ENERGIES
----------------

  NO   OCC          E(Eh)            E(eV)
   0   2.0000     -19.238029      -523.4934
   1   2.0000     -10.316080      -280.7148
   2   2.0000      -1.153373       -31.3849
   3   2.0000      -0.788572       -21.4581
   4   2.0000      -0.617415       -16.8007
   5   2.0000      -0.543064       -14.7775
   6   2.0000      -0.531697       -14.4682
   7   2.0000      -0.433423       -11.7941
   8   2.0000      -0.374303       -10.1853
   9   0.0000       0.073725         2.0062
  10   0.0000       0.115299         3.1374
  11   0.0000       0.149062         4.0562
  12   0.0000       0.175064         4.7637
  13   0.0000       0.190093         5.1727

MULLIKEN ATOMIC CHARGES
-----------------------
   0 C :   -0.000679
   1 O :   -0.000117
   2 H :    0.000172
   3 H :    0.000014
   4 H :    0.000005
   5 H :    0.000003
   6 C :   -0.175752
   7 O :   -0.449342
   8 H :    0.319313
   9 H :    0.116832
  10 H :    0.096082
  11 H :    0.093470
Sum of atomic charges:    0.0000000

LOEWDIN ATOMIC CHARGES
----------------------
   0 C :   -0.000394
   1 O :   -0.001575
   2 H :   -0.001115
   3 H :   -0.000014
   4 H :   -0.000007
   5 H :   -0.000042
   6 C :   -0.432962
   7 O :   -0.046377
   8 H :    0.182356
   9 H :    0.109626
  10 H :    0.091387
  11 H :    0.099117

  Mayer bond orders larger than 0.1
B(  6-C ,  7-O ) :   1.0132 B(  6-C ,  9-H ) :   0.9724 B(  6-C , 10-H ) :   0.9707
B(  6-C , 11-H ) :   0.9778 B(  7-O ,  8-H ) :   0.8979

Dispersion correction           -0.000233856
FINAL SINGLE POINT ENERGY      -115.732989816269

DIPOLE MOMENT
-------------
                                X             Y             Z
Electronic contribution:     -0.80353       0.39970       1.81396
Nuclear contribution   :      1.10891       0.03571      -2.22129
                        -----------------------------------------
Total Dipole Moment    :      0.30538       0.43541      -0.40734
                        -----------------------------------------
Magnitude (a.u.)       :      0.66990
Magnitude (Debye)      :      1.70275

Rotational constants in cm-1:     4.244060     0.856652     0.825078
Rotational constants in MHz : 127233.706491 25681.768486 24735.212871

                             ****ORCA TERMINATED NORMALLY****
TOTAL RUN TIME: 0 days 0 hours 0 minutes 45 seconds 490 msec
