                         Program Version 4.1.2  - RELEASE  -
|  1> #Run DFT-D3 single point of the dimer
|  2> ! wB97X-D3 def2-TZVP TIGHTSCF CHELPG PMODEL PAL8
|  3>
|  4> %base "2-53_DFT_AB"
|  5>
|  6> %scf
|  7> MaxIter 1000
|  8> end
|  9>
| 10> * xyz 0 1
| 11>   C                      -8.188592            6.299989             8.631116
| 12>   O                      -7.155412            5.502019             8.031139
| 13>   H                      -6.397915            6.059291             7.795830
| 14>   H                      -7.792349            7.169263             9.225792
| 15>   H                      -9.011123            6.514553             7.862433
| 16>   H                      -8.740029            5.735765             9.411922
| 17>   C                      -8.858361            0.599760             5.266893
| 18>   O                      -8.070024            0.651154             6.431593
| 19>   H                      -7.598837            1.501472             6.559302
| 20>   H                      -9.791042            1.088440             5.490044
| 21>   H                      -8.279464            0.920911             4.389770
| 22>   H                      -9.148679            -0.456298            5.047756
| 23> *
| 24>
| 25> #Run DFT-D3 single point of the molecule with dimer basis set
| 26> $new_job
| 27> %base "2-53_DFT_A"
| 28> ! wB97X-D3 def2-TZVP TIGHTSCF CHELPG PMODEL
| 29>
| 30> %scf
| 31> MaxIter 1000
| 32> end
| 33>
| 34> * xyz 0 1
| 35>   C                      -8.188592            6.299989             8.631116
| 36>   O                      -7.155412            5.502019             8.031139
| 37>   H                      -6.397915            6.059291             7.795830
| 38>   H                      -7.792349            7.169263             9.225792
| 39>   H                      -9.011123            6.514553             7.862433
| 40>   H                      -8.740029            5.735765             9.411922
| 41>   C                    : -8.858361            0.599760             5.266893
| 42>   O                    : -8.070024            0.651154             6.431593
| 43>   H                    : -7.598837            1.501472             6.559302
| 44>   H                    : -9.791042            1.088440             5.490044
| 45>   H                    : -8.279464            0.920911             4.389770
| 46>   H                    : -9.148679            -0.456298            5.047756
| 47> *
| 48>
| 49> #Run DFT-D3 single point of the particle with dimer basis set
| 50> $new_job
| 51> %base "2-53_DFT_B"
| 52> ! wB97X-D3 def2-TZVP TIGHTSCF CHELPG PMODEL
| 53>
| 54> %scf
| 55> MaxIter 1000
| 56> end
| 57>
| 58> * xyz 0 1
| 59>   C                    : -8.188592            6.299989             8.631116
| 60>   O                    : -7.155412            5.502019             8.031139
| 61>   H                    : -6.397915            6.059291             7.795830
| 62>   H                    : -7.792349            7.169263             9.225792
| 63>   H                    : -9.011123            6.514553             7.862433
| 64>   H                    : -8.740029            5.735765             9.411922
| 65>   C                      -8.858361            0.599760             5.266893
| 66>   O                      -8.070024            0.651154             6.431593
| 67>   H                      -7.598837            1.501472             6.559302
| 68>   H                      -9.791042            1.088440             5.490044
| 69>   H                      -8.279464            0.920911             4.389770
| 70>   H                      -9.148679            -0.456298            5.047756
| 71> *
| 72>
| 73>                          ****END OF INPUT****
 Total Charge           Charge          ....    0
 Multiplicity           Mult            ....    1
 Number of Electrons    NEL             ....   36
Dispersion correction           -0.000654685
FINAL SINGLE POINT ENERGY      -231.462719047440
Dispersion correction           -0.000284847
FINAL SINGLE POINT ENERGY      -115.729829453413

CARTESIAN COORDINATES (ANGSTROEM)
---------------------------------
  C     -8.188592    6.299989    8.631116
  O     -7.155412    5.502019    8.031139
  H     -6.397915    6.059291    7.795830
  H     -7.792349    7.169263    9.225792
  H     -9.011123    6.514553    7.862433
  H     -8.740029    5.735765    9.411922
  C     -8.858361    0.599760    5.266893
  O     -8.070024    0.651154    6.431593
  H     -7.598837    1.501472    6.559302
  H     -9.791042    1.088440    5.490044
  H     -8.279464    0.920911    4.389770
  H     -9.148679   -0.456298    5.047756

 Multiplicity           Mult            ....    1
 Number of Electrons    NEL             ....   18
 Basis Dimension        Dim             ....  172

ORBITAL ENERGIES
----------------

  NO   OCC          E(Eh)            E(eV)
   0   2.0000     -19.225585      -523.1548
   1   2.0000     -10.312962      -280.6300
   2   2.0000      -1.128567       -30.7099
   3   2.0000      -0.794045       -21.6071
   4   2.0000      -0.602954       -16.4072
   5   2.0000      -0.554420       -15.0865
   6   2.0000      -0.524384       -14.2692
   7   2.0000      -0.416261       -11.3270
   8   2.0000      -0.371733       -10.1154
   9   0.0000       0.082245         2.2380
  10   0.0000       0.114011         3.1024
  11   0.0000       0.152005         4.1363
  12   0.0000       0.161667         4.3992
  13   0.0000       0.192979         5.2512

MULLIKEN ATOMIC CHARGES
-----------------------
   0 C :   -0.000022
   1 O :   -0.000001
   2 H :   -0.000000
   3 H :   -0.000000
   4 H :    0.000001
   5 H :    0.000002
   6 C :   -0.142363
   7 O :   -0.495032
   8 H :    0.319831
   9 H :    0.104994
  10 H :    0.102823
  11 H :    0.109768
Sum of atomic charges:    0.0000000

LOEWDIN ATOMIC CHARGES
----------------------
   0 C :   -0.000009
   1 O :   -0.000018
   2 H :   -0.000002
   3 H :   -0.000000
   4 H :   -0.000000
   5 H :   -0.000000
   6 C :   -0.390110
   7 O :   -0.090752
   8 H :    0.178329
   9 H :    0.093099
  10 H :    0.097432
  11 H :    0.112032

  Mayer bond orders larger than 0.1
B(  6-C ,  7-O ) :   0.9954 B(  6-C ,  9-H ) :   0.9813 B(  6-C , 10-H ) :   0.9787
B(  6-C , 11-H ) :   0.9702 B(  7-O ,  8-H ) :   0.8896

Dispersion correction           -0.000247560
FINAL SINGLE POINT ENERGY      -115.731842763575

DIPOLE MOMENT
-------------
                                X             Y             Z
Electronic contribution:      0.94742       0.06944       1.43426
Nuclear contribution   :     -0.96690       0.44135      -1.83008
                        -----------------------------------------
Total Dipole Moment    :     -0.01947       0.51079      -0.39582
                        -----------------------------------------
Magnitude (a.u.)       :      0.64650
Magnitude (Debye)      :      1.64326

Rotational constants in cm-1:     4.278496     0.828905     0.808357
Rotational constants in MHz : 128266.083329 24849.943107 24233.939532

                             ****ORCA TERMINATED NORMALLY****
TOTAL RUN TIME: 0 days 0 hours 5 minutes 51 seconds 550 msec
