                         Program Version 4.1.2  - RELEASE  -
|  1> #Run DFT-D3 single point of the dimer
|  2> ! wB97X-D3 def2-TZVP TIGHTSCF CHELPG PMODEL PAL8
|  3>
|  4> %base "2-61_DFT_AB"
|  5>
|  6> %scf
|  7> MaxIter 1000
|  8> end
|  9>
| 10> * xyz 0 1
| 11>   C                      0.999467             -9.027304            -3.912011
| 12>   O                      2.186414             -9.130388            -3.186209
| 13>   H                      2.083546             -9.885682            -2.567494
| 14>   H                      0.950091             -9.809537            -4.582821
| 15>   H                      0.089306             -9.087572            -3.267712
| 16>   H                      0.963477             -8.154280            -4.573107
| 17>   C                      4.677394             -7.813026            -1.589694
| 18>   O                      3.595846             -8.552365            -1.029796
| 19>   H                      3.218478             -7.925360            -0.473885
| 20>   H                      4.263604             -6.980245            -2.171745
| 21>   H                      5.362882             -7.358812            -0.839855
| 22>   H                      5.305498             -8.408023            -2.243893
| 23> *
| 24>
| 25> #Run DFT-D3 single point of the molecule with dimer basis set
| 26> $new_job
| 27> %base "2-61_DFT_A"
| 28> ! wB97X-D3 def2-TZVP TIGHTSCF CHELPG PMODEL
| 29>
| 30> %scf
| 31> MaxIter 1000
| 32> end
| 33>
| 34> * xyz 0 1
| 35>   C                      0.999467             -9.027304            -3.912011
| 36>   O                      2.186414             -9.130388            -3.186209
| 37>   H                      2.083546             -9.885682            -2.567494
| 38>   H                      0.950091             -9.809537            -4.582821
| 39>   H                      0.089306             -9.087572            -3.267712
| 40>   H                      0.963477             -8.154280            -4.573107
| 41>   C                    : 4.677394             -7.813026            -1.589694
| 42>   O                    : 3.595846             -8.552365            -1.029796
| 43>   H                    : 3.218478             -7.925360            -0.473885
| 44>   H                    : 4.263604             -6.980245            -2.171745
| 45>   H                    : 5.362882             -7.358812            -0.839855
| 46>   H                    : 5.305498             -8.408023            -2.243893
| 47> *
| 48>
| 49> #Run DFT-D3 single point of the particle with dimer basis set
| 50> $new_job
| 51> %base "2-61_DFT_B"
| 52> ! wB97X-D3 def2-TZVP TIGHTSCF CHELPG PMODEL
| 53>
| 54> %scf
| 55> MaxIter 1000
| 56> end
| 57>
| 58> * xyz 0 1
| 59>   C                    : 0.999467             -9.027304            -3.912011
| 60>   O                    : 2.186414             -9.130388            -3.186209
| 61>   H                    : 2.083546             -9.885682            -2.567494
| 62>   H                    : 0.950091             -9.809537            -4.582821
| 63>   H                    : 0.089306             -9.087572            -3.267712
| 64>   H                    : 0.963477             -8.154280            -4.573107
| 65>   C                      4.677394             -7.813026            -1.589694
| 66>   O                      3.595846             -8.552365            -1.029796
| 67>   H                      3.218478             -7.925360            -0.473885
| 68>   H                      4.263604             -6.980245            -2.171745
| 69>   H                      5.362882             -7.358812            -0.839855
| 70>   H                      5.305498             -8.408023            -2.243893
| 71> *
| 72>
| 73>                          ****END OF INPUT****
 Total Charge           Charge          ....    0
 Multiplicity           Mult            ....    1
 Number of Electrons    NEL             ....   36
Dispersion correction           -0.001705039
FINAL SINGLE POINT ENERGY      -231.461493938805
Dispersion correction           -0.000223826
FINAL SINGLE POINT ENERGY      -115.730987598733

CARTESIAN COORDINATES (ANGSTROEM)
---------------------------------
  C      0.999467   -9.027304   -3.912011
  O      2.186414   -9.130388   -3.186209
  H      2.083546   -9.885682   -2.567494
  H      0.950091   -9.809537   -4.582821
  H      0.089306   -9.087572   -3.267712
  H      0.963477   -8.154280   -4.573107
  C      4.677394   -7.813026   -1.589694
  O      3.595846   -8.552365   -1.029796
  H      3.218478   -7.925360   -0.473885
  H      4.263604   -6.980245   -2.171745
  H      5.362882   -7.358812   -0.839855
  H      5.305498   -8.408023   -2.243893

 Multiplicity           Mult            ....    1
 Number of Electrons    NEL             ....   18
 Basis Dimension        Dim             ....  172

ORBITAL ENERGIES
----------------

  NO   OCC          E(Eh)            E(eV)
   0   2.0000     -19.230589      -523.2909
   1   2.0000     -10.316655      -280.7305
   2   2.0000      -1.147870       -31.2351
   3   2.0000      -0.796828       -21.6828
   4   2.0000      -0.613338       -16.6898
   5   2.0000      -0.541413       -14.7326
   6   2.0000      -0.528526       -14.3819
   7   2.0000      -0.444937       -12.1074
   8   2.0000      -0.375988       -10.2312
   9   0.0000       0.094059         2.5595
  10   0.0000       0.123685         3.3657
  11   0.0000       0.152985         4.1629
  12   0.0000       0.185887         5.0583
  13   0.0000       0.192630         5.2417

MULLIKEN ATOMIC CHARGES
-----------------------
   0 C :   -0.000058
   1 O :    0.005384
   2 H :   -0.007346
   3 H :   -0.000305
   4 H :    0.000175
   5 H :    0.000107
   6 C :   -0.182981
   7 O :   -0.456866
   8 H :    0.305402
   9 H :    0.108998
  10 H :    0.106073
  11 H :    0.121417
Sum of atomic charges:   -0.0000000

LOEWDIN ATOMIC CHARGES
----------------------
   0 C :   -0.001791
   1 O :   -0.018329
   2 H :   -0.010951
   3 H :   -0.000080
   4 H :   -0.000065
   5 H :   -0.000034
   6 C :   -0.379534
   7 O :   -0.036100
   8 H :    0.144324
   9 H :    0.097140
  10 H :    0.099374
  11 H :    0.106047

  Mayer bond orders larger than 0.1
B(  6-C ,  7-O ) :   0.9849 B(  6-C ,  9-H ) :   0.9814 B(  6-C , 10-H ) :   0.9677
B(  6-C , 11-H ) :   0.9760 B(  7-O ,  8-H ) :   0.9120

Dispersion correction           -0.000227697
FINAL SINGLE POINT ENERGY      -115.733071403974

DIPOLE MOMENT
-------------
                                X             Y             Z
Electronic contribution:     -1.36033      -1.17067       0.65642
Nuclear contribution   :      1.56029       1.85501      -0.52909
                        -----------------------------------------
Total Dipole Moment    :      0.19996       0.68433       0.12734
                        -----------------------------------------
Magnitude (a.u.)       :      0.72423
Magnitude (Debye)      :      1.84084

Rotational constants in cm-1:     4.339625     0.824664     0.795745
Rotational constants in MHz : 130098.685338 24722.804250 23855.837369

                             ****ORCA TERMINATED NORMALLY****
TOTAL RUN TIME: 0 days 0 hours 6 minutes 12 seconds 959 msec
