                         Program Version 4.1.2  - RELEASE  -
|  1> #Run DFT-D3 single point of the dimer
|  2> ! wB97X-D3 def2-TZVP TIGHTSCF CHELPG PMODEL PAL8
|  3>
|  4> %base "10-115_DFT_AB"
|  5>
|  6> %scf
|  7> MaxIter 1000
|  8> end
|  9>
| 10> * xyz 0 1
| 11>   C                      -7.366661            -2.963687            2.761216
| 12>   O                      -7.991004            -1.877299            2.184801
| 13>   H                      -8.630948            -1.490112            2.772157
| 14>   H                      -8.031490            -3.775481            2.924278
| 15>   H                      -6.620792            -3.428823            2.136483
| 16>   H                      -6.995310            -2.677469            3.725112
| 17>   C                      -5.099899            -0.314163            2.273971
| 18>   O                      -4.169031            -1.341223            2.297468
| 19>   H                      -3.967029            -1.630792            1.383608
| 20>   H                      -4.650917            0.664407             1.983989
| 21>   H                      -5.904849            -0.446509            1.523370
| 22>   H                      -5.640213            -0.184676            3.176502
| 23> *
| 24>
| 25> #Run DFT-D3 single point of the molecule with dimer basis set
| 26> $new_job
| 27> %base "10-115_DFT_A"
| 28> ! wB97X-D3 def2-TZVP TIGHTSCF CHELPG PMODEL
| 29>
| 30> %scf
| 31> MaxIter 1000
| 32> end
| 33>
| 34> * xyz 0 1
| 35>   C                      -7.366661            -2.963687            2.761216
| 36>   O                      -7.991004            -1.877299            2.184801
| 37>   H                      -8.630948            -1.490112            2.772157
| 38>   H                      -8.031490            -3.775481            2.924278
| 39>   H                      -6.620792            -3.428823            2.136483
| 40>   H                      -6.995310            -2.677469            3.725112
| 41>   C                    : -5.099899            -0.314163            2.273971
| 42>   O                    : -4.169031            -1.341223            2.297468
| 43>   H                    : -3.967029            -1.630792            1.383608
| 44>   H                    : -4.650917            0.664407             1.983989
| 45>   H                    : -5.904849            -0.446509            1.523370
| 46>   H                    : -5.640213            -0.184676            3.176502
| 47> *
| 48>
| 49> #Run DFT-D3 single point of the particle with dimer basis set
| 50> $new_job
| 51> %base "10-115_DFT_B"
| 52> ! wB97X-D3 def2-TZVP TIGHTSCF CHELPG PMODEL
| 53>
| 54> %scf
| 55> MaxIter 1000
| 56> end
| 57>
| 58> * xyz 0 1
| 59>   C                    : -7.366661            -2.963687            2.761216
| 60>   O                    : -7.991004            -1.877299            2.184801
| 61>   H                    : -8.630948            -1.490112            2.772157
| 62>   H                    : -8.031490            -3.775481            2.924278
| 63>   H                    : -6.620792            -3.428823            2.136483
| 64>   H                    : -6.995310            -2.677469            3.725112
| 65>   C                      -5.099899            -0.314163            2.273971
| 66>   O                      -4.169031            -1.341223            2.297468
| 67>   H                      -3.967029            -1.630792            1.383608
| 68>   H                      -4.650917            0.664407             1.983989
| 69>   H                      -5.904849            -0.446509            1.523370
| 70>   H                      -5.640213            -0.184676            3.176502
| 71> *
| 72>
| 73>                          ****END OF INPUT****
 Total Charge           Charge          ....    0
 Multiplicity           Mult            ....    1
 Number of Electrons    NEL             ....   36
Dispersion correction           -0.002303109
FINAL SINGLE POINT ENERGY      -231.467536945848
Dispersion correction           -0.000218071
FINAL SINGLE POINT ENERGY      -115.732169957009

CARTESIAN COORDINATES (ANGSTROEM)
---------------------------------
  C     -7.366661   -2.963687    2.761216
  O     -7.991004   -1.877299    2.184801
  H     -8.630948   -1.490112    2.772157
  H     -8.031490   -3.775481    2.924278
  H     -6.620792   -3.428823    2.136483
  H     -6.995310   -2.677469    3.725112
  C     -5.099899   -0.314163    2.273971
  O     -4.169031   -1.341223    2.297468
  H     -3.967029   -1.630792    1.383608
  H     -4.650917    0.664407    1.983989
  H     -5.904849   -0.446509    1.523370
  H     -5.640213   -0.184676    3.176502

 Multiplicity           Mult            ....    1
 Number of Electrons    NEL             ....   18
 Basis Dimension        Dim             ....  172

ORBITAL ENERGIES
----------------

  NO   OCC          E(Eh)            E(eV)
   0   2.0000     -19.235125      -523.4144
   1   2.0000     -10.310792      -280.5709
   2   2.0000      -1.141820       -31.0705
   3   2.0000      -0.796221       -21.6663
   4   2.0000      -0.617715       -16.8089
   5   2.0000      -0.543409       -14.7869
   6   2.0000      -0.529927       -14.4201
   7   2.0000      -0.430296       -11.7090
   8   2.0000      -0.371666       -10.1135
   9   0.0000       0.085851         2.3361
  10   0.0000       0.119786         3.2596
  11   0.0000       0.149169         4.0591
  12   0.0000       0.178430         4.8553
  13   0.0000       0.187568         5.1040

MULLIKEN ATOMIC CHARGES
-----------------------
   0 C :    0.008510
   1 O :   -0.001620
   2 H :   -0.000487
   3 H :    0.000005
   4 H :   -0.006007
   5 H :   -0.001219
   6 C :   -0.174017
   7 O :   -0.470518
   8 H :    0.322952
   9 H :    0.101093
  10 H :    0.099715
  11 H :    0.121592
Sum of atomic charges:    0.0000000

LOEWDIN ATOMIC CHARGES
----------------------
   0 C :   -0.007392
   1 O :   -0.005160
   2 H :   -0.000642
   3 H :   -0.000038
   4 H :   -0.002359
   5 H :   -0.000888
   6 C :   -0.409354
   7 O :   -0.057344
   8 H :    0.185878
   9 H :    0.097035
  10 H :    0.099056
  11 H :    0.101210

  Mayer bond orders larger than 0.1
B(  6-C ,  7-O ) :   1.0017 B(  6-C ,  9-H ) :   0.9726 B(  6-C , 10-H ) :   0.9839
B(  6-C , 11-H ) :   0.9745 B(  7-O ,  8-H ) :   0.8897

Dispersion correction           -0.000248003
FINAL SINGLE POINT ENERGY      -115.733384372715

DIPOLE MOMENT
-------------
                                X             Y             Z
Electronic contribution:      1.30252      -1.44354       0.30070
Nuclear contribution   :     -1.54342       1.63744      -0.88680
                        -----------------------------------------
Total Dipole Moment    :     -0.24090       0.19390      -0.58610
                        -----------------------------------------
Magnitude (a.u.)       :      0.66268
Magnitude (Debye)      :      1.68439

Rotational constants in cm-1:     4.421525     0.842046     0.814007
Rotational constants in MHz : 132553.975818 25243.899617 24403.308023

                             ****ORCA TERMINATED NORMALLY****
TOTAL RUN TIME: 0 days 0 hours 1 minutes 5 seconds 20 msec
