                         Program Version 4.1.2  - RELEASE  -
|  1> #Run DFT-D3 single point of the dimer
|  2> ! wB97X-D3 def2-TZVP TIGHTSCF CHELPG PMODEL PAL8
|  3>
|  4> %base "2-148_DFT_AB"
|  5>
|  6> %scf
|  7> MaxIter 1000
|  8> end
|  9>
| 10> * xyz 0 1
| 11>   C                      -6.482457            -6.091744            -11.616427
| 12>   O                      -6.748681            -6.186808            -10.242572
| 13>   H                      -6.790137            -5.363731            -9.729532
| 14>   H                      -7.125715            -5.429157            -12.132322
| 15>   H                      -5.530468            -5.572866            -11.775662
| 16>   H                      -6.388227            -7.055093            -12.114680
| 17>   C                      -8.825505            -10.485784           -8.457838
| 18>   O                      -8.708332            -9.285323            -9.157223
| 19>   H                      -8.184309            -8.667907            -8.673931
| 20>   H                      -8.141925            -11.170901           -8.860980
| 21>   H                      -8.707291            -10.413820           -7.332889
| 22>   H                      -9.842915            -10.846740           -8.705049
| 23> *
| 24>
| 25> #Run DFT-D3 single point of the molecule with dimer basis set
| 26> $new_job
| 27> %base "2-148_DFT_A"
| 28> ! wB97X-D3 def2-TZVP TIGHTSCF CHELPG PMODEL
| 29>
| 30> %scf
| 31> MaxIter 1000
| 32> end
| 33>
| 34> * xyz 0 1
| 35>   C                      -6.482457            -6.091744            -11.616427
| 36>   O                      -6.748681            -6.186808            -10.242572
| 37>   H                      -6.790137            -5.363731            -9.729532
| 38>   H                      -7.125715            -5.429157            -12.132322
| 39>   H                      -5.530468            -5.572866            -11.775662
| 40>   H                      -6.388227            -7.055093            -12.114680
| 41>   C                    : -8.825505            -10.485784           -8.457838
| 42>   O                    : -8.708332            -9.285323            -9.157223
| 43>   H                    : -8.184309            -8.667907            -8.673931
| 44>   H                    : -8.141925            -11.170901           -8.860980
| 45>   H                    : -8.707291            -10.413820           -7.332889
| 46>   H                    : -9.842915            -10.846740           -8.705049
| 47> *
| 48>
| 49> #Run DFT-D3 single point of the particle with dimer basis set
| 50> $new_job
| 51> %base "2-148_DFT_B"
| 52> ! wB97X-D3 def2-TZVP TIGHTSCF CHELPG PMODEL
| 53>
| 54> %scf
| 55> MaxIter 1000
| 56> end
| 57>
| 58> * xyz 0 1
| 59>   C                    : -6.482457            -6.091744            -11.616427
| 60>   O                    : -6.748681            -6.186808            -10.242572
| 61>   H                    : -6.790137            -5.363731            -9.729532
| 62>   H                    : -7.125715            -5.429157            -12.132322
| 63>   H                    : -5.530468            -5.572866            -11.775662
| 64>   H                    : -6.388227            -7.055093            -12.114680
| 65>   C                      -8.825505            -10.485784           -8.457838
| 66>   O                      -8.708332            -9.285323            -9.157223
| 67>   H                      -8.184309            -8.667907            -8.673931
| 68>   H                      -8.141925            -11.170901           -8.860980
| 69>   H                      -8.707291            -10.413820           -7.332889
| 70>   H                      -9.842915            -10.846740           -8.705049
| 71> *
| 72>
| 73>                          ****END OF INPUT****
 Total Charge           Charge          ....    0
 Multiplicity           Mult            ....    1
 Number of Electrons    NEL             ....   36
Dispersion correction           -0.000934205
FINAL SINGLE POINT ENERGY      -231.463421386930
Dispersion correction           -0.000252825
FINAL SINGLE POINT ENERGY      -115.729791414943

CARTESIAN COORDINATES (ANGSTROEM)
---------------------------------
  C     -6.482457   -6.091744  -11.616427
  O     -6.748681   -6.186808  -10.242572
  H     -6.790137   -5.363731   -9.729532
  H     -7.125715   -5.429157  -12.132322
  H     -5.530468   -5.572866  -11.775662
  H     -6.388227   -7.055093  -12.114680
  C     -8.825505  -10.485784   -8.457838
  O     -8.708332   -9.285323   -9.157223
  H     -8.184309   -8.667907   -8.673931
  H     -8.141925  -11.170901   -8.860980
  H     -8.707291  -10.413820   -7.332889
  H     -9.842915  -10.846740   -8.705049

 Multiplicity           Mult            ....    1
 Number of Electrons    NEL             ....   18
 Basis Dimension        Dim             ....  172

ORBITAL ENERGIES
----------------

  NO   OCC          E(Eh)            E(eV)
   0   2.0000     -19.225565      -523.1542
   1   2.0000     -10.311180      -280.5815
   2   2.0000      -1.143295       -31.1106
   3   2.0000      -0.796933       -21.6856
   4   2.0000      -0.614462       -16.7203
   5   2.0000      -0.547971       -14.9110
   6   2.0000      -0.524938       -14.2843
   7   2.0000      -0.431393       -11.7388
   8   2.0000      -0.371006       -10.0956
   9   0.0000       0.083885         2.2826
  10   0.0000       0.119666         3.2563
  11   0.0000       0.152573         4.1517
  12   0.0000       0.170297         4.6340
  13   0.0000       0.192807         5.2466

MULLIKEN ATOMIC CHARGES
-----------------------
   0 C :   -0.000329
   1 O :   -0.000123
   2 H :   -0.000006
   3 H :    0.000020
   4 H :   -0.000012
   5 H :   -0.000285
   6 C :   -0.156058
   7 O :   -0.476118
   8 H :    0.313541
   9 H :    0.108466
  10 H :    0.100915
  11 H :    0.109988
Sum of atomic charges:   -0.0000000

LOEWDIN ATOMIC CHARGES
----------------------
   0 C :   -0.000331
   1 O :   -0.000407
   2 H :   -0.000044
   3 H :   -0.000003
   4 H :   -0.000007
   5 H :   -0.000122
   6 C :   -0.395903
   7 O :   -0.057836
   8 H :    0.156822
   9 H :    0.085893
  10 H :    0.102429
  11 H :    0.109509

  Mayer bond orders larger than 0.1
B(  6-C ,  7-O ) :   0.9983 B(  6-C ,  9-H ) :   0.9773 B(  6-C , 10-H ) :   0.9768
B(  6-C , 11-H ) :   0.9789 B(  7-O ,  8-H ) :   0.9014

Dispersion correction           -0.000240422
FINAL SINGLE POINT ENERGY      -115.732294879028

DIPOLE MOMENT
-------------
                                X             Y             Z
Electronic contribution:      0.17079       1.48488      -0.93212
Nuclear contribution   :      0.13014      -1.54891       1.51720
                        -----------------------------------------
Total Dipole Moment    :      0.30093      -0.06403       0.58508
                        -----------------------------------------
Magnitude (a.u.)       :      0.66104
Magnitude (Debye)      :      1.68023

Rotational constants in cm-1:     4.287800     0.856707     0.819813
Rotational constants in MHz : 128545.016854 25683.427292 24577.370422

                             ****ORCA TERMINATED NORMALLY****
TOTAL RUN TIME: 0 days 0 hours 6 minutes 24 seconds 981 msec
