                         Program Version 4.1.2  - RELEASE  -
|  1> #Run DFT-D3 single point of the dimer
|  2> ! wB97X-D3 def2-TZVP TIGHTSCF CHELPG PMODEL PAL8
|  3>
|  4> %base "16-99_DFT_AB"
|  5>
|  6> %scf
|  7> MaxIter 1000
|  8> end
|  9>
| 10> * xyz 0 1
| 11>   C                      5.434958             2.875792             -9.733265
| 12>   O                      6.885886             2.877586             -9.509406
| 13>   H                      7.289825             2.013666             -9.590393
| 14>   H                      5.137906             3.799958             -10.234967
| 15>   H                      5.202899             1.890700             -10.161595
| 16>   H                      4.848795             2.960356             -8.769228
| 17>   C                      8.626979             3.603865             -5.592887
| 18>   O                      8.590657             3.069182             -4.253442
| 19>   H                      7.842469             3.461212             -3.814782
| 20>   H                      9.557913             3.305639             -6.140538
| 21>   H                      7.752535             3.206954             -6.147592
| 22>   H                      8.691890             4.666179             -5.581276
| 23> *
| 24>
| 25> #Run DFT-D3 single point of the molecule with dimer basis set
| 26> $new_job
| 27> %base "16-99_DFT_A"
| 28> ! wB97X-D3 def2-TZVP TIGHTSCF CHELPG PMODEL
| 29>
| 30> %scf
| 31> MaxIter 1000
| 32> end
| 33>
| 34> * xyz 0 1
| 35>   C                      5.434958             2.875792             -9.733265
| 36>   O                      6.885886             2.877586             -9.509406
| 37>   H                      7.289825             2.013666             -9.590393
| 38>   H                      5.137906             3.799958             -10.234967
| 39>   H                      5.202899             1.890700             -10.161595
| 40>   H                      4.848795             2.960356             -8.769228
| 41>   C                    : 8.626979             3.603865             -5.592887
| 42>   O                    : 8.590657             3.069182             -4.253442
| 43>   H                    : 7.842469             3.461212             -3.814782
| 44>   H                    : 9.557913             3.305639             -6.140538
| 45>   H                    : 7.752535             3.206954             -6.147592
| 46>   H                    : 8.691890             4.666179             -5.581276
| 47> *
| 48>
| 49> #Run DFT-D3 single point of the particle with dimer basis set
| 50> $new_job
| 51> %base "16-99_DFT_B"
| 52> ! wB97X-D3 def2-TZVP TIGHTSCF CHELPG PMODEL
| 53>
| 54> %scf
| 55> MaxIter 1000
| 56> end
| 57>
| 58> * xyz 0 1
| 59>   C                    : 5.434958             2.875792             -9.733265
| 60>   O                    : 6.885886             2.877586             -9.509406
| 61>   H                    : 7.289825             2.013666             -9.590393
| 62>   H                    : 5.137906             3.799958             -10.234967
| 63>   H                    : 5.202899             1.890700             -10.161595
| 64>   H                    : 4.848795             2.960356             -8.769228
| 65>   C                      8.626979             3.603865             -5.592887
| 66>   O                      8.590657             3.069182             -4.253442
| 67>   H                      7.842469             3.461212             -3.814782
| 68>   H                      9.557913             3.305639             -6.140538
| 69>   H                      7.752535             3.206954             -6.147592
| 70>   H                      8.691890             4.666179             -5.581276
| 71> *
| 72>
| 73>                          ****END OF INPUT****
 Total Charge           Charge          ....    0
 Multiplicity           Mult            ....    1
 Number of Electrons    NEL             ....   36
Dispersion correction           -0.000930981
FINAL SINGLE POINT ENERGY      -231.462107648211
Dispersion correction           -0.000273540
FINAL SINGLE POINT ENERGY      -115.727476150008

CARTESIAN COORDINATES (ANGSTROEM)
---------------------------------
  C      5.434958    2.875792   -9.733265
  O      6.885886    2.877586   -9.509406
  H      7.289825    2.013666   -9.590393
  H      5.137906    3.799958  -10.234967
  H      5.202899    1.890700  -10.161595
  H      4.848795    2.960356   -8.769228
  C      8.626979    3.603865   -5.592887
  O      8.590657    3.069182   -4.253442
  H      7.842469    3.461212   -3.814782
  H      9.557913    3.305639   -6.140538
  H      7.752535    3.206954   -6.147592
  H      8.691890    4.666179   -5.581276

 Multiplicity           Mult            ....    1
 Number of Electrons    NEL             ....   18
 Basis Dimension        Dim             ....  172

ORBITAL ENERGIES
----------------

  NO   OCC          E(Eh)            E(eV)
   0   2.0000     -19.227819      -523.2156
   1   2.0000     -10.317016      -280.7403
   2   2.0000      -1.128929       -30.7197
   3   2.0000      -0.795968       -21.6594
   4   2.0000      -0.602463       -16.3939
   5   2.0000      -0.548399       -14.9227
   6   2.0000      -0.521340       -14.1864
   7   2.0000      -0.429966       -11.7000
   8   2.0000      -0.376048       -10.2328
   9   0.0000       0.082160         2.2357
  10   0.0000       0.118238         3.2174
  11   0.0000       0.143201         3.8967
  12   0.0000       0.169365         4.6087
  13   0.0000       0.182055         4.9540

MULLIKEN ATOMIC CHARGES
-----------------------
   0 C :   -0.000122
   1 O :   -0.000000
   2 H :   -0.000094
   3 H :    0.000006
   4 H :    0.000003
   5 H :   -0.000078
   6 C :   -0.174501
   7 O :   -0.481548
   8 H :    0.313258
   9 H :    0.119931
  10 H :    0.109847
  11 H :    0.113298
Sum of atomic charges:   -0.0000000

LOEWDIN ATOMIC CHARGES
----------------------
   0 C :   -0.000202
   1 O :   -0.000309
   2 H :   -0.000149
   3 H :   -0.000002
   4 H :   -0.000002
   5 H :   -0.000076
   6 C :   -0.366823
   7 O :   -0.097373
   8 H :    0.160771
   9 H :    0.114625
  10 H :    0.100404
  11 H :    0.089135

  Mayer bond orders larger than 0.1
B(  6-C ,  7-O ) :   0.9884 B(  6-C ,  9-H ) :   0.9709 B(  6-C , 10-H ) :   0.9791
B(  6-C , 11-H ) :   0.9746 B(  7-O ,  8-H ) :   0.9017

Dispersion correction           -0.000245318
FINAL SINGLE POINT ENERGY      -115.733558054564

DIPOLE MOMENT
-------------
                                X             Y             Z
Electronic contribution:      0.03649      -0.69599       1.65880
Nuclear contribution   :     -0.47573       1.18195      -1.93650
                        -----------------------------------------
Total Dipole Moment    :     -0.43924       0.48596      -0.27770
                        -----------------------------------------
Magnitude (a.u.)       :      0.71148
Magnitude (Debye)      :      1.80844

Rotational constants in cm-1:     4.275339     0.801554     0.780475
Rotational constants in MHz : 128171.451365 24029.972411 23398.064315

                             ****ORCA TERMINATED NORMALLY****
TOTAL RUN TIME: 0 days 0 hours 0 minutes 53 seconds 566 msec
