                         Program Version 4.1.2  - RELEASE  -
|  1> #Run DFT-D3 single point of the dimer
|  2> ! wB97X-D3 def2-TZVP TIGHTSCF CHELPG PMODEL PAL8
|  3>
|  4> %base "6-160_DFT_AB"
|  5>
|  6> %scf
|  7> MaxIter 1000
|  8> end
|  9>
| 10> * xyz 0 1
| 11>   C                      -9.188982            2.734245             -3.089868
| 12>   O                      -7.949023            2.911490             -3.748448
| 13>   H                      -7.436477            3.426553             -3.131312
| 14>   H                      -9.203550            1.752508             -2.653941
| 15>   H                      -9.451400            3.492022             -2.322861
| 16>   H                      -10.104893           2.853784             -3.707225
| 17>   C                      -7.747924            0.916751             -6.210353
| 18>   O                      -7.142208            2.156412             -6.233135
| 19>   H                      -7.503305            2.650458             -5.488223
| 20>   H                      -8.604690            0.952695             -5.520597
| 21>   H                      -8.202398            0.750221             -7.196157
| 22>   H                      -7.147462            0.065679             -6.021000
| 23> *
| 24>
| 25> #Run DFT-D3 single point of the molecule with dimer basis set
| 26> $new_job
| 27> %base "6-160_DFT_A"
| 28> ! wB97X-D3 def2-TZVP TIGHTSCF CHELPG PMODEL
| 29>
| 30> %scf
| 31> MaxIter 1000
| 32> end
| 33>
| 34> * xyz 0 1
| 35>   C                      -9.188982            2.734245             -3.089868
| 36>   O                      -7.949023            2.911490             -3.748448
| 37>   H                      -7.436477            3.426553             -3.131312
| 38>   H                      -9.203550            1.752508             -2.653941
| 39>   H                      -9.451400            3.492022             -2.322861
| 40>   H                      -10.104893           2.853784             -3.707225
| 41>   C                    : -7.747924            0.916751             -6.210353
| 42>   O                    : -7.142208            2.156412             -6.233135
| 43>   H                    : -7.503305            2.650458             -5.488223
| 44>   H                    : -8.604690            0.952695             -5.520597
| 45>   H                    : -8.202398            0.750221             -7.196157
| 46>   H                    : -7.147462            0.065679             -6.021000
| 47> *
| 48>
| 49> #Run DFT-D3 single point of the particle with dimer basis set
| 50> $new_job
| 51> %base "6-160_DFT_B"
| 52> ! wB97X-D3 def2-TZVP TIGHTSCF CHELPG PMODEL
| 53>
| 54> %scf
| 55> MaxIter 1000
| 56> end
| 57>
| 58> * xyz 0 1
| 59>   C                    : -9.188982            2.734245             -3.089868
| 60>   O                    : -7.949023            2.911490             -3.748448
| 61>   H                    : -7.436477            3.426553             -3.131312
| 62>   H                    : -9.203550            1.752508             -2.653941
| 63>   H                    : -9.451400            3.492022             -2.322861
| 64>   H                    : -10.104893           2.853784             -3.707225
| 65>   C                      -7.747924            0.916751             -6.210353
| 66>   O                      -7.142208            2.156412             -6.233135
| 67>   H                      -7.503305            2.650458             -5.488223
| 68>   H                      -8.604690            0.952695             -5.520597
| 69>   H                      -8.202398            0.750221             -7.196157
| 70>   H                      -7.147462            0.065679             -6.021000
| 71> *
| 72>
| 73>                          ****END OF INPUT****
 Total Charge           Charge          ....    0
 Multiplicity           Mult            ....    1
 Number of Electrons    NEL             ....   36
Dispersion correction           -0.002025106
FINAL SINGLE POINT ENERGY      -231.469810766468
Dispersion correction           -0.000252695
FINAL SINGLE POINT ENERGY      -115.730701388678

CARTESIAN COORDINATES (ANGSTROEM)
---------------------------------
  C     -9.188982    2.734245   -3.089868
  O     -7.949023    2.911490   -3.748448
  H     -7.436477    3.426553   -3.131312
  H     -9.203550    1.752508   -2.653941
  H     -9.451400    3.492022   -2.322861
  H    -10.104893    2.853784   -3.707225
  C     -7.747924    0.916751   -6.210353
  O     -7.142208    2.156412   -6.233135
  H     -7.503305    2.650458   -5.488223
  H     -8.604690    0.952695   -5.520597
  H     -8.202398    0.750221   -7.196157
  H     -7.147462    0.065679   -6.021000

 Multiplicity           Mult            ....    1
 Number of Electrons    NEL             ....   18
 Basis Dimension        Dim             ....  172

ORBITAL ENERGIES
----------------

  NO   OCC          E(Eh)            E(eV)
   0   2.0000     -19.231536      -523.3167
   1   2.0000     -10.307466      -280.4804
   2   2.0000      -1.148459       -31.2512
   3   2.0000      -0.795370       -21.6431
   4   2.0000      -0.618727       -16.8364
   5   2.0000      -0.551078       -14.9956
   6   2.0000      -0.532313       -14.4850
   7   2.0000      -0.429150       -11.6778
   8   2.0000      -0.372933       -10.1480
   9   0.0000       0.065811         1.7908
  10   0.0000       0.137505         3.7417
  11   0.0000       0.143931         3.9166
  12   0.0000       0.169631         4.6159
  13   0.0000       0.188495         5.1292

MULLIKEN ATOMIC CHARGES
-----------------------
   0 C :    0.001186
   1 O :   -0.010003
   2 H :   -0.001069
   3 H :   -0.000705
   4 H :    0.000082
   5 H :   -0.000258
   6 C :   -0.153691
   7 O :   -0.460418
   8 H :    0.323909
   9 H :    0.089931
  10 H :    0.102415
  11 H :    0.108621
Sum of atomic charges:   -0.0000000

LOEWDIN ATOMIC CHARGES
----------------------
   0 C :   -0.006107
   1 O :   -0.029351
   2 H :   -0.001776
   3 H :   -0.000477
   4 H :   -0.000054
   5 H :   -0.000427
   6 C :   -0.404838
   7 O :   -0.037948
   8 H :    0.188727
   9 H :    0.099996
  10 H :    0.102652
  11 H :    0.089605

  Mayer bond orders larger than 0.1
B(  6-C ,  7-O ) :   1.0034 B(  6-C ,  9-H ) :   0.9927 B(  6-C , 10-H ) :   0.9845
B(  6-C , 11-H ) :   0.9682 B(  7-O ,  8-H ) :   0.9019

Dispersion correction           -0.000228774
FINAL SINGLE POINT ENERGY      -115.731553983093

DIPOLE MOMENT
-------------
                                X             Y             Z
Electronic contribution:      1.04705       1.55086      -0.06840
Nuclear contribution   :     -1.51258      -1.69725       0.54696
                        -----------------------------------------
Total Dipole Moment    :     -0.46553      -0.14638       0.47856
                        -----------------------------------------
Magnitude (a.u.)       :      0.68350
Magnitude (Debye)      :      1.73731

Rotational constants in cm-1:     4.379961     0.868311     0.832328
Rotational constants in MHz : 131307.925637 26031.307525 24952.574742

                             ****ORCA TERMINATED NORMALLY****
TOTAL RUN TIME: 0 days 0 hours 1 minutes 6 seconds 480 msec
