                         Program Version 4.1.2  - RELEASE  -
|  1> #Run DFT-D3 single point of the dimer
|  2> ! wB97X-D3 def2-TZVP TIGHTSCF CHELPG PMODEL PAL8
|  3>
|  4> %base "7-161_DFT_AB"
|  5>
|  6> %scf
|  7> MaxIter 1000
|  8> end
|  9>
| 10> * xyz 0 1
| 11>   C                      7.566947             5.501724             -7.688367
| 12>   O                      8.871619             5.154170             -7.252014
| 13>   H                      9.390646             4.968212             -8.055029
| 14>   H                      7.136891             4.654805             -8.248062
| 15>   H                      6.874358             5.827062             -6.924543
| 16>   H                      7.614516             6.193306             -8.485146
| 17>   C                      7.325331             2.009467             -5.670389
| 18>   O                      8.123914             3.177363             -5.456329
| 19>   H                      8.504712             3.416685             -6.307594
| 20>   H                      7.783440             1.398973             -6.538827
| 21>   H                      7.272963             1.471149             -4.685019
| 22>   H                      6.357954             2.178051             -6.023412
| 23> *
| 24>
| 25> #Run DFT-D3 single point of the molecule with dimer basis set
| 26> $new_job
| 27> %base "7-161_DFT_A"
| 28> ! wB97X-D3 def2-TZVP TIGHTSCF CHELPG PMODEL
| 29>
| 30> %scf
| 31> MaxIter 1000
| 32> end
| 33>
| 34> * xyz 0 1
| 35>   C                      7.566947             5.501724             -7.688367
| 36>   O                      8.871619             5.154170             -7.252014
| 37>   H                      9.390646             4.968212             -8.055029
| 38>   H                      7.136891             4.654805             -8.248062
| 39>   H                      6.874358             5.827062             -6.924543
| 40>   H                      7.614516             6.193306             -8.485146
| 41>   C                    : 7.325331             2.009467             -5.670389
| 42>   O                    : 8.123914             3.177363             -5.456329
| 43>   H                    : 8.504712             3.416685             -6.307594
| 44>   H                    : 7.783440             1.398973             -6.538827
| 45>   H                    : 7.272963             1.471149             -4.685019
| 46>   H                    : 6.357954             2.178051             -6.023412
| 47> *
| 48>
| 49> #Run DFT-D3 single point of the particle with dimer basis set
| 50> $new_job
| 51> %base "7-161_DFT_B"
| 52> ! wB97X-D3 def2-TZVP TIGHTSCF CHELPG PMODEL
| 53>
| 54> %scf
| 55> MaxIter 1000
| 56> end
| 57>
| 58> * xyz 0 1
| 59>   C                    : 7.566947             5.501724             -7.688367
| 60>   O                    : 8.871619             5.154170             -7.252014
| 61>   H                    : 9.390646             4.968212             -8.055029
| 62>   H                    : 7.136891             4.654805             -8.248062
| 63>   H                    : 6.874358             5.827062             -6.924543
| 64>   H                    : 7.614516             6.193306             -8.485146
| 65>   C                      7.325331             2.009467             -5.670389
| 66>   O                      8.123914             3.177363             -5.456329
| 67>   H                      8.504712             3.416685             -6.307594
| 68>   H                      7.783440             1.398973             -6.538827
| 69>   H                      7.272963             1.471149             -4.685019
| 70>   H                      6.357954             2.178051             -6.023412
| 71> *
| 72>
| 73>                          ****END OF INPUT****
 Total Charge           Charge          ....    0
 Multiplicity           Mult            ....    1
 Number of Electrons    NEL             ....   36
Dispersion correction           -0.001916557
FINAL SINGLE POINT ENERGY      -231.464193299968
Dispersion correction           -0.000222908
FINAL SINGLE POINT ENERGY      -115.730441714378

CARTESIAN COORDINATES (ANGSTROEM)
---------------------------------
  C      7.566947    5.501724   -7.688367
  O      8.871619    5.154170   -7.252014
  H      9.390646    4.968212   -8.055029
  H      7.136891    4.654805   -8.248062
  H      6.874358    5.827062   -6.924543
  H      7.614516    6.193306   -8.485146
  C      7.325331    2.009467   -5.670389
  O      8.123914    3.177363   -5.456329
  H      8.504712    3.416685   -6.307594
  H      7.783440    1.398973   -6.538827
  H      7.272963    1.471149   -4.685019
  H      6.357954    2.178051   -6.023412

 Multiplicity           Mult            ....    1
 Number of Electrons    NEL             ....   18
 Basis Dimension        Dim             ....  172

ORBITAL ENERGIES
----------------

  NO   OCC          E(Eh)            E(eV)
   0   2.0000     -19.232816      -523.3515
   1   2.0000     -10.320133      -280.8251
   2   2.0000      -1.132715       -30.8227
   3   2.0000      -0.794136       -21.6095
   4   2.0000      -0.612614       -16.6701
   5   2.0000      -0.534505       -14.5446
   6   2.0000      -0.524198       -14.2641
   7   2.0000      -0.438256       -11.9256
   8   2.0000      -0.373676       -10.1682
   9   0.0000       0.072214         1.9650
  10   0.0000       0.131515         3.5787
  11   0.0000       0.145115         3.9488
  12   0.0000       0.170609         4.6425
  13   0.0000       0.194002         5.2791

MULLIKEN ATOMIC CHARGES
-----------------------
   0 C :   -0.011991
   1 O :   -0.000771
   2 H :   -0.000114
   3 H :    0.000372
   4 H :    0.000452
   5 H :   -0.000829
   6 C :   -0.180349
   7 O :   -0.458248
   8 H :    0.314234
   9 H :    0.098459
  10 H :    0.124988
  11 H :    0.113794
Sum of atomic charges:   -0.0000000

LOEWDIN ATOMIC CHARGES
----------------------
   0 C :   -0.013423
   1 O :   -0.016997
   2 H :   -0.001385
   3 H :   -0.001163
   4 H :   -0.001577
   5 H :   -0.000291
   6 C :   -0.375101
   7 O :   -0.071807
   8 H :    0.178341
   9 H :    0.106619
  10 H :    0.115893
  11 H :    0.080891

  Mayer bond orders larger than 0.1
B(  6-C ,  7-O ) :   1.0064 B(  6-C ,  9-H ) :   0.9886 B(  6-C , 10-H ) :   0.9750
B(  6-C , 11-H ) :   0.9616 B(  7-O ,  8-H ) :   0.8994

Dispersion correction           -0.000248396
FINAL SINGLE POINT ENERGY      -115.729889400639

DIPOLE MOMENT
-------------
                                X             Y             Z
Electronic contribution:      0.88249       1.52000       0.50060
Nuclear contribution   :     -0.98411      -1.82974      -1.11532
                        -----------------------------------------
Total Dipole Moment    :     -0.10162      -0.30974      -0.61472
                        -----------------------------------------
Magnitude (a.u.)       :      0.69581
Magnitude (Debye)      :      1.76860

Rotational constants in cm-1:     4.158629     0.825798     0.777447
Rotational constants in MHz : 124672.563100 24756.804881 23307.276926

                             ****ORCA TERMINATED NORMALLY****
TOTAL RUN TIME: 0 days 0 hours 1 minutes 13 seconds 775 msec
