                         Program Version 4.1.2  - RELEASE  -
|  1> #Run DFT-D3 single point of the dimer
|  2> ! wB97X-D3 def2-TZVP TIGHTSCF CHELPG PMODEL PAL8
|  3>
|  4> %base "22-112_DFT_AB"
|  5>
|  6> %scf
|  7> MaxIter 1000
|  8> end
|  9>
| 10> * xyz 0 1
| 11>   C                      2.728777             -5.694057            -8.740329
| 12>   O                      2.324008             -5.912598            -10.072786
| 13>   H                      2.987133             -6.439181            -10.468047
| 14>   H                      2.161046             -4.898734            -8.325374
| 15>   H                      2.535671             -6.576832            -8.025007
| 16>   H                      3.746550             -5.495858            -8.741357
| 17>   C                      7.176351             -5.555444            -9.642628
| 18>   O                      6.863697             -4.634718            -10.690662
| 19>   H                      7.699356             -4.527552            -11.107944
| 20>   H                      8.036445             -5.232552            -9.075712
| 21>   H                      6.296603             -5.663072            -8.983723
| 22>   H                      7.540139             -6.544604            -9.957198
| 23> *
| 24>
| 25> #Run DFT-D3 single point of the molecule with dimer basis set
| 26> $new_job
| 27> %base "22-112_DFT_A"
| 28> ! wB97X-D3 def2-TZVP TIGHTSCF CHELPG PMODEL
| 29>
| 30> %scf
| 31> MaxIter 1000
| 32> end
| 33>
| 34> * xyz 0 1
| 35>   C                      2.728777             -5.694057            -8.740329
| 36>   O                      2.324008             -5.912598            -10.072786
| 37>   H                      2.987133             -6.439181            -10.468047
| 38>   H                      2.161046             -4.898734            -8.325374
| 39>   H                      2.535671             -6.576832            -8.025007
| 40>   H                      3.746550             -5.495858            -8.741357
| 41>   C                    : 7.176351             -5.555444            -9.642628
| 42>   O                    : 6.863697             -4.634718            -10.690662
| 43>   H                    : 7.699356             -4.527552            -11.107944
| 44>   H                    : 8.036445             -5.232552            -9.075712
| 45>   H                    : 6.296603             -5.663072            -8.983723
| 46>   H                    : 7.540139             -6.544604            -9.957198
| 47> *
| 48>
| 49> #Run DFT-D3 single point of the particle with dimer basis set
| 50> $new_job
| 51> %base "22-112_DFT_B"
| 52> ! wB97X-D3 def2-TZVP TIGHTSCF CHELPG PMODEL
| 53>
| 54> %scf
| 55> MaxIter 1000
| 56> end
| 57>
| 58> * xyz 0 1
| 59>   C                    : 2.728777             -5.694057            -8.740329
| 60>   O                    : 2.324008             -5.912598            -10.072786
| 61>   H                    : 2.987133             -6.439181            -10.468047
| 62>   H                    : 2.161046             -4.898734            -8.325374
| 63>   H                    : 2.535671             -6.576832            -8.025007
| 64>   H                    : 3.746550             -5.495858            -8.741357
| 65>   C                      7.176351             -5.555444            -9.642628
| 66>   O                      6.863697             -4.634718            -10.690662
| 67>   H                      7.699356             -4.527552            -11.107944
| 68>   H                      8.036445             -5.232552            -9.075712
| 69>   H                      6.296603             -5.663072            -8.983723
| 70>   H                      7.540139             -6.544604            -9.957198
| 71> *
| 72>
| 73>                          ****END OF INPUT****
 Total Charge           Charge          ....    0
 Multiplicity           Mult            ....    1
 Number of Electrons    NEL             ....   36
Dispersion correction           -0.001134126
FINAL SINGLE POINT ENERGY      -231.464114857730
Dispersion correction           -0.000232302
FINAL SINGLE POINT ENERGY      -115.731000274330

CARTESIAN COORDINATES (ANGSTROEM)
---------------------------------
  C      2.728777   -5.694057   -8.740329
  O      2.324008   -5.912598  -10.072786
  H      2.987133   -6.439181  -10.468047
  H      2.161046   -4.898734   -8.325374
  H      2.535671   -6.576832   -8.025007
  H      3.746550   -5.495858   -8.741357
  C      7.176351   -5.555444   -9.642628
  O      6.863697   -4.634718  -10.690662
  H      7.699356   -4.527552  -11.107944
  H      8.036445   -5.232552   -9.075712
  H      6.296603   -5.663072   -8.983723
  H      7.540139   -6.544604   -9.957198

 Multiplicity           Mult            ....    1
 Number of Electrons    NEL             ....   18
 Basis Dimension        Dim             ....  172

ORBITAL ENERGIES
----------------

  NO   OCC          E(Eh)            E(eV)
   0   2.0000     -19.232754      -523.3498
   1   2.0000     -10.315376      -280.6957
   2   2.0000      -1.141238       -31.0547
   3   2.0000      -0.796564       -21.6756
   4   2.0000      -0.617560       -16.8046
   5   2.0000      -0.530369       -14.4321
   6   2.0000      -0.524114       -14.2619
   7   2.0000      -0.451085       -12.2746
   8   2.0000      -0.373750       -10.1702
   9   0.0000       0.091156         2.4805
  10   0.0000       0.118762         3.2317
  11   0.0000       0.154208         4.1962
  12   0.0000       0.170083         4.6282
  13   0.0000       0.184999         5.0341

MULLIKEN ATOMIC CHARGES
-----------------------
   0 C :   -0.002485
   1 O :    0.000017
   2 H :   -0.000094
   3 H :    0.000054
   4 H :    0.000115
   5 H :    0.004258
   6 C :   -0.180288
   7 O :   -0.456683
   8 H :    0.308338
   9 H :    0.108895
  10 H :    0.119870
  11 H :    0.098003
Sum of atomic charges:   -0.0000000

LOEWDIN ATOMIC CHARGES
----------------------
   0 C :   -0.000768
   1 O :   -0.000012
   2 H :   -0.000081
   3 H :   -0.000002
   4 H :   -0.000008
   5 H :   -0.001868
   6 C :   -0.380106
   7 O :   -0.073002
   8 H :    0.157702
   9 H :    0.091974
  10 H :    0.112451
  11 H :    0.093721

  Mayer bond orders larger than 0.1
B(  6-C ,  7-O ) :   1.0036 B(  6-C ,  9-H ) :   0.9817 B(  6-C , 10-H ) :   0.9768
B(  6-C , 11-H ) :   0.9706 B(  7-O ,  8-H ) :   0.9088

Dispersion correction           -0.000234564
FINAL SINGLE POINT ENERGY      -115.732518050990

DIPOLE MOMENT
-------------
                                X             Y             Z
Electronic contribution:     -0.63271       1.22652      -1.34612
Nuclear contribution   :      1.29428      -1.51023       1.50188
                        -----------------------------------------
Total Dipole Moment    :      0.66158      -0.28370       0.15576
                        -----------------------------------------
Magnitude (a.u.)       :      0.73650
Magnitude (Debye)      :      1.87203

Rotational constants in cm-1:     4.331254     0.825934     0.782829
Rotational constants in MHz : 129847.728064 24760.892062 23468.637743

                             ****ORCA TERMINATED NORMALLY****
TOTAL RUN TIME: 0 days 0 hours 1 minutes 6 seconds 762 msec
