                         Program Version 4.1.2  - RELEASE  -
|  1> #Run DFT-D3 single point of the dimer
|  2> ! wB97X-D3 def2-TZVP TIGHTSCF CHELPG PMODEL PAL8
|  3>
|  4> %base "17-122_DFT_AB"
|  5>
|  6> %scf
|  7> MaxIter 1000
|  8> end
|  9>
| 10> * xyz 0 1
| 11>   C                      -4.988998            9.601026             -3.583272
| 12>   O                      -3.625614            9.389035             -3.176934
| 13>   H                      -3.637029            9.435312             -2.249069
| 14>   H                      -5.701993            9.682365             -2.747060
| 15>   H                      -5.095622            10.449238            -4.301233
| 16>   H                      -5.365626            8.684799             -4.130717
| 17>   C                      -1.627934            6.266983             -5.420462
| 18>   O                      -2.389891            5.130978             -5.209662
| 19>   H                      -3.228653            5.374556             -5.691346
| 20>   H                      -0.709581            6.221348             -4.813212
| 21>   H                      -1.362621            6.499080             -6.477642
| 22>   H                      -2.295527            7.046350             -5.054601
| 23> *
| 24>
| 25> #Run DFT-D3 single point of the molecule with dimer basis set
| 26> $new_job
| 27> %base "17-122_DFT_A"
| 28> ! wB97X-D3 def2-TZVP TIGHTSCF CHELPG PMODEL
| 29>
| 30> %scf
| 31> MaxIter 1000
| 32> end
| 33>
| 34> * xyz 0 1
| 35>   C                      -4.988998            9.601026             -3.583272
| 36>   O                      -3.625614            9.389035             -3.176934
| 37>   H                      -3.637029            9.435312             -2.249069
| 38>   H                      -5.701993            9.682365             -2.747060
| 39>   H                      -5.095622            10.449238            -4.301233
| 40>   H                      -5.365626            8.684799             -4.130717
| 41>   C                    : -1.627934            6.266983             -5.420462
| 42>   O                    : -2.389891            5.130978             -5.209662
| 43>   H                    : -3.228653            5.374556             -5.691346
| 44>   H                    : -0.709581            6.221348             -4.813212
| 45>   H                    : -1.362621            6.499080             -6.477642
| 46>   H                    : -2.295527            7.046350             -5.054601
| 47> *
| 48>
| 49> #Run DFT-D3 single point of the particle with dimer basis set
| 50> $new_job
| 51> %base "17-122_DFT_B"
| 52> ! wB97X-D3 def2-TZVP TIGHTSCF CHELPG PMODEL
| 53>
| 54> %scf
| 55> MaxIter 1000
| 56> end
| 57>
| 58> * xyz 0 1
| 59>   C                    : -4.988998            9.601026             -3.583272
| 60>   O                    : -3.625614            9.389035             -3.176934
| 61>   H                    : -3.637029            9.435312             -2.249069
| 62>   H                    : -5.701993            9.682365             -2.747060
| 63>   H                    : -5.095622            10.449238            -4.301233
| 64>   H                    : -5.365626            8.684799             -4.130717
| 65>   C                      -1.627934            6.266983             -5.420462
| 66>   O                      -2.389891            5.130978             -5.209662
| 67>   H                      -3.228653            5.374556             -5.691346
| 68>   H                      -0.709581            6.221348             -4.813212
| 69>   H                      -1.362621            6.499080             -6.477642
| 70>   H                      -2.295527            7.046350             -5.054601
| 71> *
| 72>
| 73>                          ****END OF INPUT****
 Total Charge           Charge          ....    0
 Multiplicity           Mult            ....    1
 Number of Electrons    NEL             ....   36
Dispersion correction           -0.000980957
FINAL SINGLE POINT ENERGY      -231.461219037886
Dispersion correction           -0.000269140
FINAL SINGLE POINT ENERGY      -115.731922514582

CARTESIAN COORDINATES (ANGSTROEM)
---------------------------------
  C     -4.988998    9.601026   -3.583272
  O     -3.625614    9.389035   -3.176934
  H     -3.637029    9.435312   -2.249069
  H     -5.701993    9.682365   -2.747060
  H     -5.095622   10.449238   -4.301233
  H     -5.365626    8.684799   -4.130717
  C     -1.627934    6.266983   -5.420462
  O     -2.389891    5.130978   -5.209662
  H     -3.228653    5.374556   -5.691346
  H     -0.709581    6.221348   -4.813212
  H     -1.362621    6.499080   -6.477642
  H     -2.295527    7.046350   -5.054601

 Multiplicity           Mult            ....    1
 Number of Electrons    NEL             ....   18
 Basis Dimension        Dim             ....  172

ORBITAL ENERGIES
----------------

  NO   OCC          E(Eh)            E(eV)
   0   2.0000     -19.233535      -523.3711
   1   2.0000     -10.312714      -280.6232
   2   2.0000      -1.145229       -31.1633
   3   2.0000      -0.783517       -21.3206
   4   2.0000      -0.612190       -16.6585
   5   2.0000      -0.548929       -14.9371
   6   2.0000      -0.527724       -14.3601
   7   2.0000      -0.436482       -11.8773
   8   2.0000      -0.367698       -10.0056
   9   0.0000       0.077343         2.1046
  10   0.0000       0.111604         3.0369
  11   0.0000       0.152645         4.1537
  12   0.0000       0.168335         4.5806
  13   0.0000       0.179861         4.8943

MULLIKEN ATOMIC CHARGES
-----------------------
   0 C :   -0.000347
   1 O :   -0.000039
   2 H :   -0.000039
   3 H :   -0.000002
   4 H :    0.000033
   5 H :    0.000113
   6 C :   -0.163901
   7 O :   -0.458595
   8 H :    0.316924
   9 H :    0.115354
  10 H :    0.092068
  11 H :    0.098431
Sum of atomic charges:   -0.0000000

LOEWDIN ATOMIC CHARGES
----------------------
   0 C :   -0.000435
   1 O :   -0.000659
   2 H :   -0.000070
   3 H :   -0.000007
   4 H :   -0.000007
   5 H :   -0.000092
   6 C :   -0.420287
   7 O :   -0.073026
   8 H :    0.197134
   9 H :    0.108770
  10 H :    0.093392
  11 H :    0.095287

  Mayer bond orders larger than 0.1
B(  6-C ,  7-O ) :   0.9991 B(  6-C ,  9-H ) :   0.9717 B(  6-C , 10-H ) :   0.9622
B(  6-C , 11-H ) :   0.9983 B(  7-O ,  8-H ) :   0.8964

Dispersion correction           -0.000204709
FINAL SINGLE POINT ENERGY      -115.728256729473

DIPOLE MOMENT
-------------
                                X             Y             Z
Electronic contribution:     -0.76310      -1.62226       0.33667
Nuclear contribution   :      0.53306       2.18037      -0.68437
                        -----------------------------------------
Total Dipole Moment    :     -0.23004       0.55812      -0.34771
                        -----------------------------------------
Magnitude (a.u.)       :      0.69664
Magnitude (Debye)      :      1.77073

Rotational constants in cm-1:     4.093950     0.877046     0.835152
Rotational constants in MHz : 122733.539579 26293.167508 25037.235435

                             ****ORCA TERMINATED NORMALLY****
TOTAL RUN TIME: 0 days 0 hours 0 minutes 56 seconds 839 msec
