                         Program Version 4.1.2  - RELEASE  -
|  1> #Run DFT-D3 single point of the dimer
|  2> ! wB97X-D3 def2-TZVP TIGHTSCF CHELPG PMODEL PAL8
|  3>
|  4> %base "15-93_DFT_AB"
|  5>
|  6> %scf
|  7> MaxIter 1000
|  8> end
|  9>
| 10> * xyz 0 1
| 11>   C                      -9.298286            -3.963653            -8.912593
| 12>   O                      -9.166355            -4.048198            -10.336452
| 13>   H                      -8.265125            -4.216737            -10.593542
| 14>   H                      -8.442000            -3.655143            -8.442609
| 15>   H                      -10.045310           -3.234867            -8.637548
| 16>   H                      -9.578055            -4.961619            -8.479259
| 17>   C                      -5.228021            -5.201579            -7.289716
| 18>   O                      -5.730064            -6.451486            -7.748698
| 19>   H                      -5.272211            -6.676350            -8.575378
| 20>   H                      -4.370147            -5.383258            -6.565154
| 21>   H                      -4.907543            -4.739476            -8.134472
| 22>   H                      -5.945658            -4.573453            -6.762848
| 23> *
| 24>
| 25> #Run DFT-D3 single point of the molecule with dimer basis set
| 26> $new_job
| 27> %base "15-93_DFT_A"
| 28> ! wB97X-D3 def2-TZVP TIGHTSCF CHELPG PMODEL
| 29>
| 30> %scf
| 31> MaxIter 1000
| 32> end
| 33>
| 34> * xyz 0 1
| 35>   C                      -9.298286            -3.963653            -8.912593
| 36>   O                      -9.166355            -4.048198            -10.336452
| 37>   H                      -8.265125            -4.216737            -10.593542
| 38>   H                      -8.442000            -3.655143            -8.442609
| 39>   H                      -10.045310           -3.234867            -8.637548
| 40>   H                      -9.578055            -4.961619            -8.479259
| 41>   C                    : -5.228021            -5.201579            -7.289716
| 42>   O                    : -5.730064            -6.451486            -7.748698
| 43>   H                    : -5.272211            -6.676350            -8.575378
| 44>   H                    : -4.370147            -5.383258            -6.565154
| 45>   H                    : -4.907543            -4.739476            -8.134472
| 46>   H                    : -5.945658            -4.573453            -6.762848
| 47> *
| 48>
| 49> #Run DFT-D3 single point of the particle with dimer basis set
| 50> $new_job
| 51> %base "15-93_DFT_B"
| 52> ! wB97X-D3 def2-TZVP TIGHTSCF CHELPG PMODEL
| 53>
| 54> %scf
| 55> MaxIter 1000
| 56> end
| 57>
| 58> * xyz 0 1
| 59>   C                    : -9.298286            -3.963653            -8.912593
| 60>   O                    : -9.166355            -4.048198            -10.336452
| 61>   H                    : -8.265125            -4.216737            -10.593542
| 62>   H                    : -8.442000            -3.655143            -8.442609
| 63>   H                    : -10.045310           -3.234867            -8.637548
| 64>   H                    : -9.578055            -4.961619            -8.479259
| 65>   C                      -5.228021            -5.201579            -7.289716
| 66>   O                      -5.730064            -6.451486            -7.748698
| 67>   H                      -5.272211            -6.676350            -8.575378
| 68>   H                      -4.370147            -5.383258            -6.565154
| 69>   H                      -4.907543            -4.739476            -8.134472
| 70>   H                      -5.945658            -4.573453            -6.762848
| 71> *
| 72>
| 73>                          ****END OF INPUT****
 Total Charge           Charge          ....    0
 Multiplicity           Mult            ....    1
 Number of Electrons    NEL             ....   36
Dispersion correction           -0.001140971
FINAL SINGLE POINT ENERGY      -231.459509630205
Dispersion correction           -0.000255864
FINAL SINGLE POINT ENERGY      -115.731661528208

CARTESIAN COORDINATES (ANGSTROEM)
---------------------------------
  C     -9.298286   -3.963653   -8.912593
  O     -9.166355   -4.048198  -10.336452
  H     -8.265125   -4.216737  -10.593542
  H     -8.442000   -3.655143   -8.442609
  H    -10.045310   -3.234867   -8.637548
  H     -9.578055   -4.961619   -8.479259
  C     -5.228021   -5.201579   -7.289716
  O     -5.730064   -6.451486   -7.748698
  H     -5.272211   -6.676350   -8.575378
  H     -4.370147   -5.383258   -6.565154
  H     -4.907543   -4.739476   -8.134472
  H     -5.945658   -4.573453   -6.762848

 Multiplicity           Mult            ....    1
 Number of Electrons    NEL             ....   18
 Basis Dimension        Dim             ....  172

ORBITAL ENERGIES
----------------

  NO   OCC          E(Eh)            E(eV)
   0   2.0000     -19.227990      -523.2202
   1   2.0000     -10.309287      -280.5300
   2   2.0000      -1.131054       -30.7775
   3   2.0000      -0.797084       -21.6898
   4   2.0000      -0.610502       -16.6126
   5   2.0000      -0.541864       -14.7449
   6   2.0000      -0.533353       -14.5133
   7   2.0000      -0.430932       -11.7263
   8   2.0000      -0.370350       -10.0777
   9   0.0000       0.085892         2.3372
  10   0.0000       0.117290         3.1916
  11   0.0000       0.150894         4.1060
  12   0.0000       0.165771         4.5109
  13   0.0000       0.194516         5.2931

MULLIKEN ATOMIC CHARGES
-----------------------
   0 C :   -0.000670
   1 O :    0.000117
   2 H :   -0.000183
   3 H :   -0.000327
   4 H :   -0.000004
   5 H :   -0.000143
   6 C :   -0.158744
   7 O :   -0.482393
   8 H :    0.316438
   9 H :    0.098547
  10 H :    0.108531
  11 H :    0.118830
Sum of atomic charges:    0.0000000

LOEWDIN ATOMIC CHARGES
----------------------
   0 C :   -0.000684
   1 O :   -0.000014
   2 H :   -0.000114
   3 H :   -0.000410
   4 H :   -0.000027
   5 H :   -0.000171
   6 C :   -0.368982
   7 O :   -0.092923
   8 H :    0.175324
   9 H :    0.104301
  10 H :    0.079333
  11 H :    0.104369

  Mayer bond orders larger than 0.1
B(  6-C ,  7-O ) :   0.9937 B(  6-C ,  9-H ) :   0.9746 B(  6-C , 10-H ) :   0.9947
B(  6-C , 11-H ) :   0.9719 B(  7-O ,  8-H ) :   0.8983

Dispersion correction           -0.000233744
FINAL SINGLE POINT ENERGY      -115.727261671235

DIPOLE MOMENT
-------------
                                X             Y             Z
Electronic contribution:     -0.79138      -1.48105      -0.50886
Nuclear contribution   :      1.27841       1.86868       0.13616
                        -----------------------------------------
Total Dipole Moment    :      0.48703       0.38764      -0.37269
                        -----------------------------------------
Magnitude (a.u.)       :      0.72551
Magnitude (Debye)      :      1.84409

Rotational constants in cm-1:     4.357976     0.824896     0.801202
Rotational constants in MHz : 130648.846734 24729.765612 24019.438240

                             ****ORCA TERMINATED NORMALLY****
TOTAL RUN TIME: 0 days 0 hours 0 minutes 45 seconds 964 msec
