                         Program Version 4.1.2  - RELEASE  -
|  1> #Run DFT-D3 single point of the dimer
|  2> ! wB97X-D3 def2-TZVP TIGHTSCF CHELPG PMODEL PAL8
|  3>
|  4> %base "11-121_DFT_AB"
|  5>
|  6> %scf
|  7> MaxIter 1000
|  8> end
|  9>
| 10> * xyz 0 1
| 11>   C                      -9.077613            5.057390             5.420772
| 12>   O                      -8.869812            6.423419             5.681312
| 13>   H                      -9.673944            6.927638             5.424677
| 14>   H                      -9.769286            4.564212             6.147987
| 15>   H                      -9.462591            4.906891             4.415890
| 16>   H                      -8.125936            4.472946             5.431620
| 17>   C                      -6.627658            7.081964             3.362169
| 18>   O                      -5.285582            6.645281             3.332176
| 19>   H                      -5.029885            6.674027             2.389215
| 20>   H                      -7.282603            6.314999             2.972260
| 21>   H                      -6.947798            7.487413             4.321601
| 22>   H                      -6.790034            7.846642             2.565367
| 23> *
| 24>
| 25> #Run DFT-D3 single point of the molecule with dimer basis set
| 26> $new_job
| 27> %base "11-121_DFT_A"
| 28> ! wB97X-D3 def2-TZVP TIGHTSCF CHELPG PMODEL
| 29>
| 30> %scf
| 31> MaxIter 1000
| 32> end
| 33>
| 34> * xyz 0 1
| 35>   C                      -9.077613            5.057390             5.420772
| 36>   O                      -8.869812            6.423419             5.681312
| 37>   H                      -9.673944            6.927638             5.424677
| 38>   H                      -9.769286            4.564212             6.147987
| 39>   H                      -9.462591            4.906891             4.415890
| 40>   H                      -8.125936            4.472946             5.431620
| 41>   C                    : -6.627658            7.081964             3.362169
| 42>   O                    : -5.285582            6.645281             3.332176
| 43>   H                    : -5.029885            6.674027             2.389215
| 44>   H                    : -7.282603            6.314999             2.972260
| 45>   H                    : -6.947798            7.487413             4.321601
| 46>   H                    : -6.790034            7.846642             2.565367
| 47> *
| 48>
| 49> #Run DFT-D3 single point of the particle with dimer basis set
| 50> $new_job
| 51> %base "11-121_DFT_B"
| 52> ! wB97X-D3 def2-TZVP TIGHTSCF CHELPG PMODEL
| 53>
| 54> %scf
| 55> MaxIter 1000
| 56> end
| 57>
| 58> * xyz 0 1
| 59>   C                    : -9.077613            5.057390             5.420772
| 60>   O                    : -8.869812            6.423419             5.681312
| 61>   H                    : -9.673944            6.927638             5.424677
| 62>   H                    : -9.769286            4.564212             6.147987
| 63>   H                    : -9.462591            4.906891             4.415890
| 64>   H                    : -8.125936            4.472946             5.431620
| 65>   C                      -6.627658            7.081964             3.362169
| 66>   O                      -5.285582            6.645281             3.332176
| 67>   H                      -5.029885            6.674027             2.389215
| 68>   H                      -7.282603            6.314999             2.972260
| 69>   H                      -6.947798            7.487413             4.321601
| 70>   H                      -6.790034            7.846642             2.565367
| 71> *
| 72>
| 73>                          ****END OF INPUT****
 Total Charge           Charge          ....    0
 Multiplicity           Mult            ....    1
 Number of Electrons    NEL             ....   36
Dispersion correction           -0.001868076
FINAL SINGLE POINT ENERGY      -231.467601830910
Dispersion correction           -0.000253096
FINAL SINGLE POINT ENERGY      -115.735206412150

CARTESIAN COORDINATES (ANGSTROEM)
---------------------------------
  C     -9.077613    5.057390    5.420772
  O     -8.869812    6.423419    5.681312
  H     -9.673944    6.927638    5.424677
  H     -9.769286    4.564212    6.147987
  H     -9.462591    4.906891    4.415890
  H     -8.125936    4.472946    5.431620
  C     -6.627658    7.081964    3.362169
  O     -5.285582    6.645281    3.332176
  H     -5.029885    6.674027    2.389215
  H     -7.282603    6.314999    2.972260
  H     -6.947798    7.487413    4.321601
  H     -6.790034    7.846642    2.565367

 Multiplicity           Mult            ....    1
 Number of Electrons    NEL             ....   18
 Basis Dimension        Dim             ....  172

ORBITAL ENERGIES
----------------

  NO   OCC          E(Eh)            E(eV)
   0   2.0000     -19.232282      -523.3370
   1   2.0000     -10.314314      -280.6667
   2   2.0000      -1.136043       -30.9133
   3   2.0000      -0.792744       -21.5716
   4   2.0000      -0.613429       -16.6923
   5   2.0000      -0.541391       -14.7320
   6   2.0000      -0.525310       -14.2944
   7   2.0000      -0.438671       -11.9368
   8   2.0000      -0.368814       -10.0359
   9   0.0000       0.085294         2.3210
  10   0.0000       0.110938         3.0188
  11   0.0000       0.151572         4.1245
  12   0.0000       0.169415         4.6100
  13   0.0000       0.184523         5.0211

MULLIKEN ATOMIC CHARGES
-----------------------
   0 C :   -0.000500
   1 O :   -0.000817
   2 H :   -0.000095
   3 H :    0.000094
   4 H :   -0.000360
   5 H :    0.000827
   6 C :   -0.172847
   7 O :   -0.467269
   8 H :    0.317655
   9 H :    0.103040
  10 H :    0.123184
  11 H :    0.097089
Sum of atomic charges:    0.0000000

LOEWDIN ATOMIC CHARGES
----------------------
   0 C :   -0.004634
   1 O :   -0.004599
   2 H :   -0.000644
   3 H :   -0.000037
   4 H :   -0.001126
   5 H :   -0.000352
   6 C :   -0.388285
   7 O :   -0.083600
   8 H :    0.182649
   9 H :    0.094188
  10 H :    0.108484
  11 H :    0.097956

  Mayer bond orders larger than 0.1
B(  6-C ,  7-O ) :   1.0004 B(  6-C ,  9-H ) :   0.9733 B(  6-C , 10-H ) :   0.9704
B(  6-C , 11-H ) :   0.9835 B(  7-O ,  8-H ) :   0.8964

Dispersion correction           -0.000225275
FINAL SINGLE POINT ENERGY      -115.731175125012

DIPOLE MOMENT
-------------
                                X             Y             Z
Electronic contribution:      1.76490      -0.61665       0.33737
Nuclear contribution   :     -2.12751       0.81110      -0.92780
                        -----------------------------------------
Total Dipole Moment    :     -0.36261       0.19445      -0.59043
                        -----------------------------------------
Magnitude (a.u.)       :      0.71966
Magnitude (Debye)      :      1.82922

Rotational constants in cm-1:     4.251060     0.841102     0.797193
Rotational constants in MHz : 127443.562654 25215.598704 23899.249198

                             ****ORCA TERMINATED NORMALLY****
TOTAL RUN TIME: 0 days 0 hours 1 minutes 4 seconds 904 msec
