                         Program Version 4.1.2  - RELEASE  -
|  1> #Run DFT-D3 single point of the dimer
|  2> ! wB97X-D3 def2-TZVP TIGHTSCF CHELPG PMODEL PAL8
|  3>
|  4> %base "20-76_DFT_AB"
|  5>
|  6> %scf
|  7> MaxIter 1000
|  8> end
|  9>
| 10> * xyz 0 1
| 11>   C                      -2.839955            -3.953407            -0.078150
| 12>   O                      -2.008247            -2.946951            0.371114
| 13>   H                      -2.187683            -2.219467            -0.178250
| 14>   H                      -3.058394            -3.772306            -1.120352
| 15>   H                      -2.431864            -4.948480            0.016022
| 16>   H                      -3.792097            -3.920621            0.402216
| 17>   C                      -4.577794            -8.204555            0.758113
| 18>   O                      -3.963812            -6.878370            0.949898
| 19>   H                      -4.601478            -6.202893            0.636504
| 20>   H                      -4.823748            -8.459030            -0.313163
| 21>   H                      -3.861738            -8.947558            1.107325
| 22>   H                      -5.539757            -8.212242            1.264604
| 23> *
| 24>
| 25> #Run DFT-D3 single point of the molecule with dimer basis set
| 26> $new_job
| 27> %base "20-76_DFT_A"
| 28> ! wB97X-D3 def2-TZVP TIGHTSCF CHELPG PMODEL
| 29>
| 30> %scf
| 31> MaxIter 1000
| 32> end
| 33>
| 34> * xyz 0 1
| 35>   C                      -2.839955            -3.953407            -0.078150
| 36>   O                      -2.008247            -2.946951            0.371114
| 37>   H                      -2.187683            -2.219467            -0.178250
| 38>   H                      -3.058394            -3.772306            -1.120352
| 39>   H                      -2.431864            -4.948480            0.016022
| 40>   H                      -3.792097            -3.920621            0.402216
| 41>   C                    : -4.577794            -8.204555            0.758113
| 42>   O                    : -3.963812            -6.878370            0.949898
| 43>   H                    : -4.601478            -6.202893            0.636504
| 44>   H                    : -4.823748            -8.459030            -0.313163
| 45>   H                    : -3.861738            -8.947558            1.107325
| 46>   H                    : -5.539757            -8.212242            1.264604
| 47> *
| 48>
| 49> #Run DFT-D3 single point of the particle with dimer basis set
| 50> $new_job
| 51> %base "20-76_DFT_B"
| 52> ! wB97X-D3 def2-TZVP TIGHTSCF CHELPG PMODEL
| 53>
| 54> %scf
| 55> MaxIter 1000
| 56> end
| 57>
| 58> * xyz 0 1
| 59>   C                    : -2.839955            -3.953407            -0.078150
| 60>   O                    : -2.008247            -2.946951            0.371114
| 61>   H                    : -2.187683            -2.219467            -0.178250
| 62>   H                    : -3.058394            -3.772306            -1.120352
| 63>   H                    : -2.431864            -4.948480            0.016022
| 64>   H                    : -3.792097            -3.920621            0.402216
| 65>   C                      -4.577794            -8.204555            0.758113
| 66>   O                      -3.963812            -6.878370            0.949898
| 67>   H                      -4.601478            -6.202893            0.636504
| 68>   H                      -4.823748            -8.459030            -0.313163
| 69>   H                      -3.861738            -8.947558            1.107325
| 70>   H                      -5.539757            -8.212242            1.264604
| 71> *
| 72>
| 73>                          ****END OF INPUT****
 Total Charge           Charge          ....    0
 Multiplicity           Mult            ....    1
 Number of Electrons    NEL             ....   36
Dispersion correction           -0.001453292
FINAL SINGLE POINT ENERGY      -231.465218011067
Dispersion correction           -0.000207890
FINAL SINGLE POINT ENERGY      -115.731741973275

CARTESIAN COORDINATES (ANGSTROEM)
---------------------------------
  C     -2.839955   -3.953407   -0.078150
  O     -2.008247   -2.946951    0.371114
  H     -2.187683   -2.219467   -0.178250
  H     -3.058394   -3.772306   -1.120352
  H     -2.431864   -4.948480    0.016022
  H     -3.792097   -3.920621    0.402216
  C     -4.577794   -8.204555    0.758113
  O     -3.963812   -6.878370    0.949898
  H     -4.601478   -6.202893    0.636504
  H     -4.823748   -8.459030   -0.313163
  H     -3.861738   -8.947558    1.107325
  H     -5.539757   -8.212242    1.264604

 Multiplicity           Mult            ....    1
 Number of Electrons    NEL             ....   18
 Basis Dimension        Dim             ....  172

ORBITAL ENERGIES
----------------

  NO   OCC          E(Eh)            E(eV)
   0   2.0000     -19.232800      -523.3511
   1   2.0000     -10.321649      -280.8664
   2   2.0000      -1.115592       -30.3568
   3   2.0000      -0.794807       -21.6278
   4   2.0000      -0.600759       -16.3475
   5   2.0000      -0.535032       -14.5589
   6   2.0000      -0.515420       -14.0253
   7   2.0000      -0.441547       -12.0151
   8   2.0000      -0.373627       -10.1669
   9   0.0000       0.086736         2.3602
  10   0.0000       0.123001         3.3470
  11   0.0000       0.148000         4.0273
  12   0.0000       0.188024         5.1164
  13   0.0000       0.195324         5.3150

MULLIKEN ATOMIC CHARGES
-----------------------
   0 C :   -0.003995
   1 O :   -0.000209
   2 H :   -0.000039
   3 H :    0.000749
   4 H :   -0.005955
   5 H :   -0.000212
   6 C :   -0.177829
   7 O :   -0.476459
   8 H :    0.315664
   9 H :    0.102200
  10 H :    0.132807
  11 H :    0.113278
Sum of atomic charges:   -0.0000000

LOEWDIN ATOMIC CHARGES
----------------------
   0 C :   -0.009658
   1 O :   -0.000050
   2 H :   -0.000025
   3 H :   -0.000097
   4 H :   -0.008742
   5 H :   -0.002056
   6 C :   -0.346832
   7 O :   -0.115774
   8 H :    0.178046
   9 H :    0.099903
  10 H :    0.109581
  11 H :    0.095703

  Mayer bond orders larger than 0.1
B(  6-C ,  7-O ) :   0.9918 B(  6-C ,  9-H ) :   0.9669 B(  6-C , 10-H ) :   0.9728
B(  6-C , 11-H ) :   0.9754 B(  7-O ,  8-H ) :   0.8966

Dispersion correction           -0.000269330
FINAL SINGLE POINT ENERGY      -115.732987701675

DIPOLE MOMENT
-------------
                                X             Y             Z
Electronic contribution:      0.90033       1.49592       0.36975
Nuclear contribution   :     -1.56849      -1.65837      -0.63432
                        -----------------------------------------
Total Dipole Moment    :     -0.66815      -0.16244      -0.26456
                        -----------------------------------------
Magnitude (a.u.)       :      0.73676
Magnitude (Debye)      :      1.87269

Rotational constants in cm-1:     4.183450     0.779160     0.745575
Rotational constants in MHz : 125416.689636 23358.630216 22351.763432

                             ****ORCA TERMINATED NORMALLY****
TOTAL RUN TIME: 0 days 0 hours 0 minutes 56 seconds 300 msec
