                         Program Version 4.1.2  - RELEASE  -
|  1> #Run DFT-D3 single point of the dimer
|  2> ! wB97X-D3 def2-TZVP TIGHTSCF CHELPG PMODEL PAL8
|  3>
|  4> %base "13-36_DFT_AB"
|  5>
|  6> %scf
|  7> MaxIter 1000
|  8> end
|  9>
| 10> * xyz 0 1
| 11>   C                      2.238468             -1.442492            -1.376394
| 12>   O                      1.121689             -1.733540            -0.514272
| 13>   H                      1.431541             -2.499082            -0.058163
| 14>   H                      3.190386             -1.760322            -0.835746
| 15>   H                      2.025457             -1.974779            -2.354060
| 16>   H                      2.293692             -0.377440            -1.575006
| 17>   C                      3.963747             -3.154217            -4.945973
| 18>   O                      4.362584             -2.281395            -3.851655
| 19>   H                      4.077318             -1.452071            -4.213905
| 20>   H                      4.382273             -2.936864            -5.947264
| 21>   H                      4.234366             -4.138114            -4.796596
| 22>   H                      2.847343             -3.273839            -5.075239
| 23> *
| 24>
| 25> #Run DFT-D3 single point of the molecule with dimer basis set
| 26> $new_job
| 27> %base "13-36_DFT_A"
| 28> ! wB97X-D3 def2-TZVP TIGHTSCF CHELPG PMODEL
| 29>
| 30> %scf
| 31> MaxIter 1000
| 32> end
| 33>
| 34> * xyz 0 1
| 35>   C                      2.238468             -1.442492            -1.376394
| 36>   O                      1.121689             -1.733540            -0.514272
| 37>   H                      1.431541             -2.499082            -0.058163
| 38>   H                      3.190386             -1.760322            -0.835746
| 39>   H                      2.025457             -1.974779            -2.354060
| 40>   H                      2.293692             -0.377440            -1.575006
| 41>   C                    : 3.963747             -3.154217            -4.945973
| 42>   O                    : 4.362584             -2.281395            -3.851655
| 43>   H                    : 4.077318             -1.452071            -4.213905
| 44>   H                    : 4.382273             -2.936864            -5.947264
| 45>   H                    : 4.234366             -4.138114            -4.796596
| 46>   H                    : 2.847343             -3.273839            -5.075239
| 47> *
| 48>
| 49> #Run DFT-D3 single point of the particle with dimer basis set
| 50> $new_job
| 51> %base "13-36_DFT_B"
| 52> ! wB97X-D3 def2-TZVP TIGHTSCF CHELPG PMODEL
| 53>
| 54> %scf
| 55> MaxIter 1000
| 56> end
| 57>
| 58> * xyz 0 1
| 59>   C                    : 2.238468             -1.442492            -1.376394
| 60>   O                    : 1.121689             -1.733540            -0.514272
| 61>   H                    : 1.431541             -2.499082            -0.058163
| 62>   H                    : 3.190386             -1.760322            -0.835746
| 63>   H                    : 2.025457             -1.974779            -2.354060
| 64>   H                    : 2.293692             -0.377440            -1.575006
| 65>   C                      3.963747             -3.154217            -4.945973
| 66>   O                      4.362584             -2.281395            -3.851655
| 67>   H                      4.077318             -1.452071            -4.213905
| 68>   H                      4.382273             -2.936864            -5.947264
| 69>   H                      4.234366             -4.138114            -4.796596
| 70>   H                      2.847343             -3.273839            -5.075239
| 71> *
| 72>
| 73>                          ****END OF INPUT****
 Total Charge           Charge          ....    0
 Multiplicity           Mult            ....    1
 Number of Electrons    NEL             ....   36
Dispersion correction           -0.001615021
FINAL SINGLE POINT ENERGY      -231.458958896117
Dispersion correction           -0.000233270
FINAL SINGLE POINT ENERGY      -115.730654471641

CARTESIAN COORDINATES (ANGSTROEM)
---------------------------------
  C      2.238468   -1.442492   -1.376394
  O      1.121689   -1.733540   -0.514272
  H      1.431541   -2.499082   -0.058163
  H      3.190386   -1.760322   -0.835746
  H      2.025457   -1.974779   -2.354060
  H      2.293692   -0.377440   -1.575006
  C      3.963747   -3.154217   -4.945973
  O      4.362584   -2.281395   -3.851655
  H      4.077318   -1.452071   -4.213905
  H      4.382273   -2.936864   -5.947264
  H      4.234366   -4.138114   -4.796596
  H      2.847343   -3.273839   -5.075239

 Multiplicity           Mult            ....    1
 Number of Electrons    NEL             ....   18
 Basis Dimension        Dim             ....  172

ORBITAL ENERGIES
----------------

  NO   OCC          E(Eh)            E(eV)
   0   2.0000     -19.240231      -523.5533
   1   2.0000     -10.315808      -280.7074
   2   2.0000      -1.136085       -30.9144
   3   2.0000      -0.802816       -21.8457
   4   2.0000      -0.604224       -16.4418
   5   2.0000      -0.533274       -14.5111
   6   2.0000      -0.528643       -14.3851
   7   2.0000      -0.447893       -12.1878
   8   2.0000      -0.381444       -10.3796
   9   0.0000       0.090921         2.4741
  10   0.0000       0.126300         3.4368
  11   0.0000       0.143240         3.8978
  12   0.0000       0.181822         4.9476
  13   0.0000       0.189496         5.1565

MULLIKEN ATOMIC CHARGES
-----------------------
   0 C :    0.002130
   1 O :   -0.000260
   2 H :   -0.000131
   3 H :   -0.001504
   4 H :   -0.007716
   5 H :   -0.000819
   6 C :   -0.199559
   7 O :   -0.450267
   8 H :    0.316602
   9 H :    0.109465
  10 H :    0.126645
  11 H :    0.105414
Sum of atomic charges:   -0.0000000

LOEWDIN ATOMIC CHARGES
----------------------
   0 C :   -0.010337
   1 O :   -0.000048
   2 H :   -0.000021
   3 H :   -0.001462
   4 H :   -0.005730
   5 H :   -0.000418
   6 C :   -0.370341
   7 O :   -0.074484
   8 H :    0.165875
   9 H :    0.100393
  10 H :    0.092668
  11 H :    0.103904

  Mayer bond orders larger than 0.1
B(  6-C ,  7-O ) :   1.0068 B(  6-C ,  9-H ) :   0.9712 B(  6-C , 10-H ) :   0.9786
B(  6-C , 11-H ) :   0.9724 B(  7-O ,  8-H ) :   0.9042

Dispersion correction           -0.000267518
FINAL SINGLE POINT ENERGY      -115.727153225412

DIPOLE MOMENT
-------------
                                X             Y             Z
Electronic contribution:      0.69645       1.08303       1.58790
Nuclear contribution   :     -1.00149      -0.96019      -2.24659
                        -----------------------------------------
Total Dipole Moment    :     -0.30505       0.12284      -0.65869
                        -----------------------------------------
Magnitude (a.u.)       :      0.73622
Magnitude (Debye)      :      1.87131

Rotational constants in cm-1:     4.474566     0.782301     0.763696
Rotational constants in MHz : 134144.113026 23452.797429 22895.025898

                             ****ORCA TERMINATED NORMALLY****
TOTAL RUN TIME: 0 days 0 hours 1 minutes 12 seconds 97 msec
