                         Program Version 4.1.2  - RELEASE  -
|  1> #Run DFT-D3 single point of the dimer
|  2> ! wB97X-D3 def2-TZVP TIGHTSCF CHELPG PMODEL PAL8
|  3>
|  4> %base "7-205_DFT_AB"
|  5>
|  6> %scf
|  7> MaxIter 1000
|  8> end
|  9>
| 10> * xyz 0 1
| 11>   C                      -1.131126            6.943872             9.337002
| 12>   O                      -1.336318            6.584339             7.948773
| 13>   H                      -2.032077            5.936859             7.854210
| 14>   H                      -2.051176            7.337864             9.696394
| 15>   H                      -0.953307            6.030843             9.931406
| 16>   H                      -0.297737            7.670743             9.423129
| 17>   C                      1.536890             6.629011             5.519386
| 18>   O                      0.725455             7.687187             5.987546
| 19>   H                      0.091693             7.294986             6.653605
| 20>   H                      1.917909             6.062887             6.367477
| 21>   H                      0.971347             5.888742             4.873822
| 22>   H                      2.438145             6.869504             4.946360
| 23> *
| 24>
| 25> #Run DFT-D3 single point of the molecule with dimer basis set
| 26> $new_job
| 27> %base "7-205_DFT_A"
| 28> ! wB97X-D3 def2-TZVP TIGHTSCF CHELPG PMODEL
| 29>
| 30> %scf
| 31> MaxIter 1000
| 32> end
| 33>
| 34> * xyz 0 1
| 35>   C                      -1.131126            6.943872             9.337002
| 36>   O                      -1.336318            6.584339             7.948773
| 37>   H                      -2.032077            5.936859             7.854210
| 38>   H                      -2.051176            7.337864             9.696394
| 39>   H                      -0.953307            6.030843             9.931406
| 40>   H                      -0.297737            7.670743             9.423129
| 41>   C                    : 1.536890             6.629011             5.519386
| 42>   O                    : 0.725455             7.687187             5.987546
| 43>   H                    : 0.091693             7.294986             6.653605
| 44>   H                    : 1.917909             6.062887             6.367477
| 45>   H                    : 0.971347             5.888742             4.873822
| 46>   H                    : 2.438145             6.869504             4.946360
| 47> *
| 48>
| 49> #Run DFT-D3 single point of the particle with dimer basis set
| 50> $new_job
| 51> %base "7-205_DFT_B"
| 52> ! wB97X-D3 def2-TZVP TIGHTSCF CHELPG PMODEL
| 53>
| 54> %scf
| 55> MaxIter 1000
| 56> end
| 57>
| 58> * xyz 0 1
| 59>   C                    : -1.131126            6.943872             9.337002
| 60>   O                    : -1.336318            6.584339             7.948773
| 61>   H                    : -2.032077            5.936859             7.854210
| 62>   H                    : -2.051176            7.337864             9.696394
| 63>   H                    : -0.953307            6.030843             9.931406
| 64>   H                    : -0.297737            7.670743             9.423129
| 65>   C                      1.536890             6.629011             5.519386
| 66>   O                      0.725455             7.687187             5.987546
| 67>   H                      0.091693             7.294986             6.653605
| 68>   H                      1.917909             6.062887             6.367477
| 69>   H                      0.971347             5.888742             4.873822
| 70>   H                      2.438145             6.869504             4.946360
| 71> *
| 72>
| 73>                          ****END OF INPUT****
 Total Charge           Charge          ....    0
 Multiplicity           Mult            ....    1
 Number of Electrons    NEL             ....   36
Dispersion correction           -0.001600107
FINAL SINGLE POINT ENERGY      -231.473803847381
Dispersion correction           -0.000240705
FINAL SINGLE POINT ENERGY      -115.733711121468

CARTESIAN COORDINATES (ANGSTROEM)
---------------------------------
  C     -1.131126    6.943872    9.337002
  O     -1.336318    6.584339    7.948773
  H     -2.032077    5.936859    7.854210
  H     -2.051176    7.337864    9.696394
  H     -0.953307    6.030843    9.931406
  H     -0.297737    7.670743    9.423129
  C      1.536890    6.629011    5.519386
  O      0.725455    7.687187    5.987546
  H      0.091693    7.294986    6.653605
  H      1.917909    6.062887    6.367477
  H      0.971347    5.888742    4.873822
  H      2.438145    6.869504    4.946360

 Multiplicity           Mult            ....    1
 Number of Electrons    NEL             ....   18
 Basis Dimension        Dim             ....  172

ORBITAL ENERGIES
----------------

  NO   OCC          E(Eh)            E(eV)
   0   2.0000     -19.237117      -523.4686
   1   2.0000     -10.317261      -280.7470
   2   2.0000      -1.131695       -30.7950
   3   2.0000      -0.791351       -21.5338
   4   2.0000      -0.606927       -16.5153
   5   2.0000      -0.535877       -14.5819
   6   2.0000      -0.532785       -14.4978
   7   2.0000      -0.429710       -11.6930
   8   2.0000      -0.372427       -10.1343
   9   0.0000       0.067141         1.8270
  10   0.0000       0.129229         3.5165
  11   0.0000       0.147620         4.0169
  12   0.0000       0.158605         4.3159
  13   0.0000       0.192674         5.2429

MULLIKEN ATOMIC CHARGES
-----------------------
   0 C :   -0.001604
   1 O :   -0.000926
   2 H :   -0.000019
   3 H :   -0.000084
   4 H :    0.000099
   5 H :   -0.001187
   6 C :   -0.175965
   7 O :   -0.466984
   8 H :    0.318817
   9 H :    0.104123
  10 H :    0.097225
  11 H :    0.126503
Sum of atomic charges:    0.0000000

LOEWDIN ATOMIC CHARGES
----------------------
   0 C :   -0.003374
   1 O :   -0.014734
   2 H :   -0.000817
   3 H :   -0.000074
   4 H :   -0.000037
   5 H :   -0.001014
   6 C :   -0.399866
   7 O :   -0.084802
   8 H :    0.203843
   9 H :    0.093770
  10 H :    0.099014
  11 H :    0.108091

  Mayer bond orders larger than 0.1
B(  6-C ,  7-O ) :   0.9940 B(  6-C ,  9-H ) :   0.9819 B(  6-C , 10-H ) :   0.9749
B(  6-C , 11-H ) :   0.9688 B(  7-O ,  8-H ) :   0.8981

Dispersion correction           -0.000252767
FINAL SINGLE POINT ENERGY      -115.730663519541

DIPOLE MOMENT
-------------
                                X             Y             Z
Electronic contribution:     -0.96173       1.65274       0.49118
Nuclear contribution   :      0.91735      -2.30275      -0.24777
                        -----------------------------------------
Total Dipole Moment    :     -0.04438      -0.65001       0.24341
                        -----------------------------------------
Magnitude (a.u.)       :      0.69550
Magnitude (Debye)      :      1.76783

Rotational constants in cm-1:     4.302811     0.815818     0.788765
Rotational constants in MHz : 128995.042638 24457.622577 23646.577325

                             ****ORCA TERMINATED NORMALLY****
TOTAL RUN TIME: 0 days 0 hours 1 minutes 7 seconds 691 msec
