                         Program Version 4.1.2  - RELEASE  -
|  1> #Run DFT-D3 single point of the dimer
|  2> ! wB97X-D3 def2-TZVP TIGHTSCF CHELPG PMODEL PAL8
|  3>
|  4> %base "13-143_DFT_AB"
|  5>
|  6> %scf
|  7> MaxIter 1000
|  8> end
|  9>
| 10> * xyz 0 1
| 11>   C                      -2.561850            8.333009             5.793317
| 12>   O                      -3.098374            7.684261             4.668960
| 13>   H                      -2.260752            7.229011             4.369283
| 14>   H                      -1.504505            8.534680             5.701477
| 15>   H                      -3.050513            9.317847             5.958538
| 16>   H                      -2.651462            7.682936             6.685952
| 17>   C                      -3.713729            2.994849             5.056679
| 18>   O                      -3.465774            3.785034             3.908871
| 19>   H                      -3.930081            3.413246             3.108385
| 20>   H                      -4.720237            2.668428             5.182172
| 21>   H                      -3.189832            2.010708             5.015684
| 22>   H                      -3.394363            3.545532             5.974320
| 23> *
| 24>
| 25> #Run DFT-D3 single point of the molecule with dimer basis set
| 26> $new_job
| 27> %base "13-143_DFT_A"
| 28> ! wB97X-D3 def2-TZVP TIGHTSCF CHELPG PMODEL
| 29>
| 30> %scf
| 31> MaxIter 1000
| 32> end
| 33>
| 34> * xyz 0 1
| 35>   C                      -2.561850            8.333009             5.793317
| 36>   O                      -3.098374            7.684261             4.668960
| 37>   H                      -2.260752            7.229011             4.369283
| 38>   H                      -1.504505            8.534680             5.701477
| 39>   H                      -3.050513            9.317847             5.958538
| 40>   H                      -2.651462            7.682936             6.685952
| 41>   C                    : -3.713729            2.994849             5.056679
| 42>   O                    : -3.465774            3.785034             3.908871
| 43>   H                    : -3.930081            3.413246             3.108385
| 44>   H                    : -4.720237            2.668428             5.182172
| 45>   H                    : -3.189832            2.010708             5.015684
| 46>   H                    : -3.394363            3.545532             5.974320
| 47> *
| 48>
| 49> #Run DFT-D3 single point of the particle with dimer basis set
| 50> $new_job
| 51> %base "13-143_DFT_B"
| 52> ! wB97X-D3 def2-TZVP TIGHTSCF CHELPG PMODEL
| 53>
| 54> %scf
| 55> MaxIter 1000
| 56> end
| 57>
| 58> * xyz 0 1
| 59>   C                    : -2.561850            8.333009             5.793317
| 60>   O                    : -3.098374            7.684261             4.668960
| 61>   H                    : -2.260752            7.229011             4.369283
| 62>   H                    : -1.504505            8.534680             5.701477
| 63>   H                    : -3.050513            9.317847             5.958538
| 64>   H                    : -2.651462            7.682936             6.685952
| 65>   C                      -3.713729            2.994849             5.056679
| 66>   O                      -3.465774            3.785034             3.908871
| 67>   H                      -3.930081            3.413246             3.108385
| 68>   H                      -4.720237            2.668428             5.182172
| 69>   H                      -3.189832            2.010708             5.015684
| 70>   H                      -3.394363            3.545532             5.974320
| 71> *
| 72>
| 73>                          ****END OF INPUT****
 Total Charge           Charge          ....    0
 Multiplicity           Mult            ....    1
 Number of Electrons    NEL             ....   36
Dispersion correction           -0.000877953
FINAL SINGLE POINT ENERGY      -231.462972364400
Dispersion correction           -0.000220814
FINAL SINGLE POINT ENERGY      -115.730080947404

CARTESIAN COORDINATES (ANGSTROEM)
---------------------------------
  C     -2.561850    8.333009    5.793317
  O     -3.098374    7.684261    4.668960
  H     -2.260752    7.229011    4.369283
  H     -1.504505    8.534680    5.701477
  H     -3.050513    9.317847    5.958538
  H     -2.651462    7.682936    6.685952
  C     -3.713729    2.994849    5.056679
  O     -3.465774    3.785034    3.908871
  H     -3.930081    3.413246    3.108385
  H     -4.720237    2.668428    5.182172
  H     -3.189832    2.010708    5.015684
  H     -3.394363    3.545532    5.974320

 Multiplicity           Mult            ....    1
 Number of Electrons    NEL             ....   18
 Basis Dimension        Dim             ....  172

ORBITAL ENERGIES
----------------

  NO   OCC          E(Eh)            E(eV)
   0   2.0000     -19.234687      -523.4025
   1   2.0000     -10.314618      -280.6750
   2   2.0000      -1.127890       -30.6914
   3   2.0000      -0.793749       -21.5990
   4   2.0000      -0.614084       -16.7101
   5   2.0000      -0.530321       -14.4308
   6   2.0000      -0.524624       -14.2757
   7   2.0000      -0.435175       -11.8417
   8   2.0000      -0.370319       -10.0769
   9   0.0000       0.093360         2.5405
  10   0.0000       0.112512         3.0616
  11   0.0000       0.148804         4.0492
  12   0.0000       0.176548         4.8041
  13   0.0000       0.192330         5.2336

MULLIKEN ATOMIC CHARGES
-----------------------
   0 C :   -0.000005
   1 O :   -0.000272
   2 H :   -0.001097
   3 H :    0.000009
   4 H :    0.000003
   5 H :   -0.000047
   6 C :   -0.157102
   7 O :   -0.480851
   8 H :    0.318098
   9 H :    0.105167
  10 H :    0.093899
  11 H :    0.122199
Sum of atomic charges:   -0.0000000

LOEWDIN ATOMIC CHARGES
----------------------
   0 C :   -0.000049
   1 O :   -0.000384
   2 H :   -0.000875
   3 H :   -0.000001
   4 H :   -0.000001
   5 H :   -0.000012
   6 C :   -0.392228
   7 O :   -0.093917
   8 H :    0.189707
   9 H :    0.086698
  10 H :    0.096400
  11 H :    0.114662

  Mayer bond orders larger than 0.1
B(  6-C ,  7-O ) :   0.9998 B(  6-C ,  9-H ) :   0.9728 B(  6-C , 10-H ) :   0.9743
B(  6-C , 11-H ) :   0.9723 B(  7-O ,  8-H ) :   0.8893

Dispersion correction           -0.000262049
FINAL SINGLE POINT ENERGY      -115.732470097612

DIPOLE MOMENT
-------------
                                X             Y             Z
Electronic contribution:      0.35314       1.19712      -1.41538
Nuclear contribution   :     -0.77392      -1.75468       1.36671
                        -----------------------------------------
Total Dipole Moment    :     -0.42077      -0.55756      -0.04867
                        -----------------------------------------
Magnitude (a.u.)       :      0.70021
Magnitude (Debye)      :      1.77978

Rotational constants in cm-1:     4.312496     0.821469     0.782238
Rotational constants in MHz : 129285.376936 24627.011813 23450.909825

                             ****ORCA TERMINATED NORMALLY****
TOTAL RUN TIME: 0 days 0 hours 0 minutes 57 seconds 632 msec
