                         Program Version 4.1.2  - RELEASE  -
|  1> #Run DFT-D3 single point of the dimer
|  2> ! wB97X-D3 def2-TZVP TIGHTSCF CHELPG PMODEL PAL8
|  3>
|  4> %base "21-107_DFT_AB"
|  5>
|  6> %scf
|  7> MaxIter 1000
|  8> end
|  9>
| 10> * xyz 0 1
| 11>   C                      3.968792             8.387656             10.579955
| 12>   O                      3.086890             7.272689             10.231642
| 13>   H                      2.188274             7.650745             10.307865
| 14>   H                      3.545260             8.992403             11.442318
| 15>   H                      4.988270             8.027184             10.820508
| 16>   H                      4.116574             8.997618             9.652648
| 17>   C                      -2.218287            5.664021             8.630185
| 18>   O                      -0.931570            5.676409             9.243623
| 19>   H                      -0.849726            4.808067             9.689148
| 20>   H                      -2.394326            4.671944             8.191348
| 21>   H                      -3.081464            5.887541             9.282524
| 22>   H                      -2.271306            6.373568             7.844386
| 23> *
| 24>
| 25> #Run DFT-D3 single point of the molecule with dimer basis set
| 26> $new_job
| 27> %base "21-107_DFT_A"
| 28> ! wB97X-D3 def2-TZVP TIGHTSCF CHELPG PMODEL
| 29>
| 30> %scf
| 31> MaxIter 1000
| 32> end
| 33>
| 34> * xyz 0 1
| 35>   C                      3.968792             8.387656             10.579955
| 36>   O                      3.086890             7.272689             10.231642
| 37>   H                      2.188274             7.650745             10.307865
| 38>   H                      3.545260             8.992403             11.442318
| 39>   H                      4.988270             8.027184             10.820508
| 40>   H                      4.116574             8.997618             9.652648
| 41>   C                    : -2.218287            5.664021             8.630185
| 42>   O                    : -0.931570            5.676409             9.243623
| 43>   H                    : -0.849726            4.808067             9.689148
| 44>   H                    : -2.394326            4.671944             8.191348
| 45>   H                    : -3.081464            5.887541             9.282524
| 46>   H                    : -2.271306            6.373568             7.844386
| 47> *
| 48>
| 49> #Run DFT-D3 single point of the particle with dimer basis set
| 50> $new_job
| 51> %base "21-107_DFT_B"
| 52> ! wB97X-D3 def2-TZVP TIGHTSCF CHELPG PMODEL
| 53>
| 54> %scf
| 55> MaxIter 1000
| 56> end
| 57>
| 58> * xyz 0 1
| 59>   C                    : 3.968792             8.387656             10.579955
| 60>   O                    : 3.086890             7.272689             10.231642
| 61>   H                    : 2.188274             7.650745             10.307865
| 62>   H                    : 3.545260             8.992403             11.442318
| 63>   H                    : 4.988270             8.027184             10.820508
| 64>   H                    : 4.116574             8.997618             9.652648
| 65>   C                      -2.218287            5.664021             8.630185
| 66>   O                      -0.931570            5.676409             9.243623
| 67>   H                      -0.849726            4.808067             9.689148
| 68>   H                      -2.394326            4.671944             8.191348
| 69>   H                      -3.081464            5.887541             9.282524
| 70>   H                      -2.271306            6.373568             7.844386
| 71> *
| 72>
| 73>                          ****END OF INPUT****
 Total Charge           Charge          ....    0
 Multiplicity           Mult            ....    1
 Number of Electrons    NEL             ....   36
Dispersion correction           -0.000692315
FINAL SINGLE POINT ENERGY      -231.467024977965
Dispersion correction           -0.000261526
FINAL SINGLE POINT ENERGY      -115.731752579783

CARTESIAN COORDINATES (ANGSTROEM)
---------------------------------
  C      3.968792    8.387656   10.579955
  O      3.086890    7.272689   10.231642
  H      2.188274    7.650745   10.307865
  H      3.545260    8.992403   11.442318
  H      4.988270    8.027184   10.820508
  H      4.116574    8.997618    9.652648
  C     -2.218287    5.664021    8.630185
  O     -0.931570    5.676409    9.243623
  H     -0.849726    4.808067    9.689148
  H     -2.394326    4.671944    8.191348
  H     -3.081464    5.887541    9.282524
  H     -2.271306    6.373568    7.844386

 Multiplicity           Mult            ....    1
 Number of Electrons    NEL             ....   18
 Basis Dimension        Dim             ....  172

ORBITAL ENERGIES
----------------

  NO   OCC          E(Eh)            E(eV)
   0   2.0000     -19.234549      -523.3987
   1   2.0000     -10.312337      -280.6129
   2   2.0000      -1.131626       -30.7931
   3   2.0000      -0.796284       -21.6680
   4   2.0000      -0.607189       -16.5225
   5   2.0000      -0.537915       -14.6374
   6   2.0000      -0.529971       -14.4212
   7   2.0000      -0.437530       -11.9058
   8   2.0000      -0.374708       -10.1963
   9   0.0000       0.094395         2.5686
  10   0.0000       0.111549         3.0354
  11   0.0000       0.151057         4.1105
  12   0.0000       0.178859         4.8670
  13   0.0000       0.202272         5.5041

MULLIKEN ATOMIC CHARGES
-----------------------
   0 C :    0.000094
   1 O :    0.000061
   2 H :   -0.001290
   3 H :   -0.000004
   4 H :    0.000002
   5 H :   -0.000006
   6 C :   -0.163970
   7 O :   -0.471905
   8 H :    0.317761
   9 H :    0.100228
  10 H :    0.099541
  11 H :    0.119487
Sum of atomic charges:    0.0000000

LOEWDIN ATOMIC CHARGES
----------------------
   0 C :   -0.000007
   1 O :   -0.000048
   2 H :   -0.000735
   3 H :   -0.000000
   4 H :   -0.000001
   5 H :   -0.000000
   6 C :   -0.380099
   7 O :   -0.092162
   8 H :    0.181759
   9 H :    0.097089
  10 H :    0.095845
  11 H :    0.098360

  Mayer bond orders larger than 0.1
B(  6-C ,  7-O ) :   1.0054 B(  6-C ,  9-H ) :   0.9860 B(  6-C , 10-H ) :   0.9668
B(  6-C , 11-H ) :   0.9770 B(  7-O ,  8-H ) :   0.8975

Dispersion correction           -0.000247768
FINAL SINGLE POINT ENERGY      -115.734294236470

DIPOLE MOMENT
-------------
                                X             Y             Z
Electronic contribution:      1.71743       0.22508       0.75487
Nuclear contribution   :     -2.17500      -0.77308      -0.74600
                        -----------------------------------------
Total Dipole Moment    :     -0.45757      -0.54799       0.00887
                        -----------------------------------------
Magnitude (a.u.)       :      0.71396
Magnitude (Debye)      :      1.81475

Rotational constants in cm-1:     4.343116     0.818502     0.788227
Rotational constants in MHz : 130203.336972 24538.071709 23630.461548

                             ****ORCA TERMINATED NORMALLY****
TOTAL RUN TIME: 0 days 0 hours 0 minutes 49 seconds 686 msec
