                         Program Version 4.1.2  - RELEASE  -
|  1> #Run DFT-D3 single point of the dimer
|  2> ! wB97X-D3 def2-TZVP TIGHTSCF CHELPG PMODEL PAL8
|  3>
|  4> %base "9-134_DFT_AB"
|  5>
|  6> %scf
|  7> MaxIter 1000
|  8> end
|  9>
| 10> * xyz 0 1
| 11>   C                      -5.865951            8.801182             9.237158
| 12>   O                      -4.504364            9.024511             9.438902
| 13>   H                      -4.386974            8.905559             10.395434
| 14>   H                      -6.114894            8.254094             8.307403
| 15>   H                      -6.434138            8.201952             9.981236
| 16>   H                      -6.459091            9.717621             9.220402
| 17>   C                      -1.290299            8.433248             8.669022
| 18>   O                      -1.568761            7.924219             9.948612
| 19>   H                      -1.060228            8.309099             10.647641
| 20>   H                      -1.568167            9.504635             8.514932
| 21>   H                      -0.198766            8.334005             8.519396
| 22>   H                      -1.691228            7.854699             7.915342
| 23> *
| 24>
| 25> #Run DFT-D3 single point of the molecule with dimer basis set
| 26> $new_job
| 27> %base "9-134_DFT_A"
| 28> ! wB97X-D3 def2-TZVP TIGHTSCF CHELPG PMODEL
| 29>
| 30> %scf
| 31> MaxIter 1000
| 32> end
| 33>
| 34> * xyz 0 1
| 35>   C                      -5.865951            8.801182             9.237158
| 36>   O                      -4.504364            9.024511             9.438902
| 37>   H                      -4.386974            8.905559             10.395434
| 38>   H                      -6.114894            8.254094             8.307403
| 39>   H                      -6.434138            8.201952             9.981236
| 40>   H                      -6.459091            9.717621             9.220402
| 41>   C                    : -1.290299            8.433248             8.669022
| 42>   O                    : -1.568761            7.924219             9.948612
| 43>   H                    : -1.060228            8.309099             10.647641
| 44>   H                    : -1.568167            9.504635             8.514932
| 45>   H                    : -0.198766            8.334005             8.519396
| 46>   H                    : -1.691228            7.854699             7.915342
| 47> *
| 48>
| 49> #Run DFT-D3 single point of the particle with dimer basis set
| 50> $new_job
| 51> %base "9-134_DFT_B"
| 52> ! wB97X-D3 def2-TZVP TIGHTSCF CHELPG PMODEL
| 53>
| 54> %scf
| 55> MaxIter 1000
| 56> end
| 57>
| 58> * xyz 0 1
| 59>   C                    : -5.865951            8.801182             9.237158
| 60>   O                    : -4.504364            9.024511             9.438902
| 61>   H                    : -4.386974            8.905559             10.395434
| 62>   H                    : -6.114894            8.254094             8.307403
| 63>   H                    : -6.434138            8.201952             9.981236
| 64>   H                    : -6.459091            9.717621             9.220402
| 65>   C                      -1.290299            8.433248             8.669022
| 66>   O                      -1.568761            7.924219             9.948612
| 67>   H                      -1.060228            8.309099             10.647641
| 68>   H                      -1.568167            9.504635             8.514932
| 69>   H                      -0.198766            8.334005             8.519396
| 70>   H                      -1.691228            7.854699             7.915342
| 71> *
| 72>
| 73>                          ****END OF INPUT****
 Total Charge           Charge          ....    0
 Multiplicity           Mult            ....    1
 Number of Electrons    NEL             ....   36
Dispersion correction           -0.001604191
FINAL SINGLE POINT ENERGY      -231.463449113637
Dispersion correction           -0.000259621
FINAL SINGLE POINT ENERGY      -115.731067584455

CARTESIAN COORDINATES (ANGSTROEM)
---------------------------------
  C     -5.865951    8.801182    9.237158
  O     -4.504364    9.024511    9.438902
  H     -4.386974    8.905559   10.395434
  H     -6.114894    8.254094    8.307403
  H     -6.434138    8.201952    9.981236
  H     -6.459091    9.717621    9.220402
  C     -1.290299    8.433248    8.669022
  O     -1.568761    7.924219    9.948612
  H     -1.060228    8.309099   10.647641
  H     -1.568167    9.504635    8.514932
  H     -0.198766    8.334005    8.519396
  H     -1.691228    7.854699    7.915342

 Multiplicity           Mult            ....    1
 Number of Electrons    NEL             ....   18
 Basis Dimension        Dim             ....  172

ORBITAL ENERGIES
----------------

  NO   OCC          E(Eh)            E(eV)
   0   2.0000     -19.226408      -523.1772
   1   2.0000     -10.310287      -280.5572
   2   2.0000      -1.137166       -30.9439
   3   2.0000      -0.803659       -21.8687
   4   2.0000      -0.613818       -16.7028
   5   2.0000      -0.543140       -14.7796
   6   2.0000      -0.536871       -14.6090
   7   2.0000      -0.424778       -11.5588
   8   2.0000      -0.371781       -10.1167
   9   0.0000       0.091961         2.5024
  10   0.0000       0.119667         3.2563
  11   0.0000       0.152156         4.1404
  12   0.0000       0.183533         4.9942
  13   0.0000       0.197457         5.3731

MULLIKEN ATOMIC CHARGES
-----------------------
   0 C :    0.000778
   1 O :    0.001698
   2 H :   -0.005244
   3 H :    0.000029
   4 H :   -0.000003
   5 H :   -0.000064
   6 C :   -0.156920
   7 O :   -0.488177
   8 H :    0.318564
   9 H :    0.100607
  10 H :    0.102326
  11 H :    0.126404
Sum of atomic charges:    0.0000000

LOEWDIN ATOMIC CHARGES
----------------------
   0 C :   -0.000197
   1 O :   -0.003277
   2 H :   -0.004862
   3 H :   -0.000006
   4 H :   -0.000002
   5 H :   -0.000008
   6 C :   -0.383530
   7 O :   -0.061047
   8 H :    0.159468
   9 H :    0.099271
  10 H :    0.100223
  11 H :    0.093967

  Mayer bond orders larger than 0.1
B(  6-C ,  7-O ) :   0.9889 B(  6-C ,  9-H ) :   0.9727 B(  6-C , 10-H ) :   0.9839
B(  6-C , 11-H ) :   0.9727 B(  7-O ,  8-H ) :   0.8950

Dispersion correction           -0.000248215
FINAL SINGLE POINT ENERGY      -115.731273154157

DIPOLE MOMENT
-------------
                                X             Y             Z
Electronic contribution:     -0.58317      -0.74186       1.55360
Nuclear contribution   :      1.04659       1.17089      -1.63310
                        -----------------------------------------
Total Dipole Moment    :      0.46343       0.42903      -0.07951
                        -----------------------------------------
Magnitude (a.u.)       :      0.63652
Magnitude (Debye)      :      1.61790

Rotational constants in cm-1:     4.495361     0.827342     0.809012
Rotational constants in MHz : 134767.534771 24803.092000 24253.584003

                             ****ORCA TERMINATED NORMALLY****
TOTAL RUN TIME: 0 days 0 hours 0 minutes 44 seconds 526 msec
