                         Program Version 4.1.2  - RELEASE  -
|  1> #Run DFT-D3 single point of the dimer
|  2> ! wB97X-D3 def2-TZVP TIGHTSCF CHELPG PMODEL PAL8
|  3>
|  4> %base "16-140_DFT_AB"
|  5>
|  6> %scf
|  7> MaxIter 1000
|  8> end
|  9>
| 10> * xyz 0 1
| 11>   C                      -3.172253            6.115077             -9.430730
| 12>   O                      -2.258837            5.717845             -8.440253
| 13>   H                      -1.895937            4.816713             -8.604891
| 14>   H                      -3.875050            5.249466             -9.500495
| 15>   H                      -3.779067            6.980646             -9.198653
| 16>   H                      -2.772807            6.321334             -10.463396
| 17>   C                      -0.630207            7.769372             -6.299508
| 18>   O                      -1.047571            8.513318             -5.194869
| 19>   H                      -0.866806            9.427100             -5.300580
| 20>   H                      -1.383374            7.904799             -7.109928
| 21>   H                      0.363272             8.079789             -6.641043
| 22>   H                      -0.580763            6.721230             -6.068428
| 23> *
| 24>
| 25> #Run DFT-D3 single point of the molecule with dimer basis set
| 26> $new_job
| 27> %base "16-140_DFT_A"
| 28> ! wB97X-D3 def2-TZVP TIGHTSCF CHELPG PMODEL
| 29>
| 30> %scf
| 31> MaxIter 1000
| 32> end
| 33>
| 34> * xyz 0 1
| 35>   C                      -3.172253            6.115077             -9.430730
| 36>   O                      -2.258837            5.717845             -8.440253
| 37>   H                      -1.895937            4.816713             -8.604891
| 38>   H                      -3.875050            5.249466             -9.500495
| 39>   H                      -3.779067            6.980646             -9.198653
| 40>   H                      -2.772807            6.321334             -10.463396
| 41>   C                    : -0.630207            7.769372             -6.299508
| 42>   O                    : -1.047571            8.513318             -5.194869
| 43>   H                    : -0.866806            9.427100             -5.300580
| 44>   H                    : -1.383374            7.904799             -7.109928
| 45>   H                    : 0.363272             8.079789             -6.641043
| 46>   H                    : -0.580763            6.721230             -6.068428
| 47> *
| 48>
| 49> #Run DFT-D3 single point of the particle with dimer basis set
| 50> $new_job
| 51> %base "16-140_DFT_B"
| 52> ! wB97X-D3 def2-TZVP TIGHTSCF CHELPG PMODEL
| 53>
| 54> %scf
| 55> MaxIter 1000
| 56> end
| 57>
| 58> * xyz 0 1
| 59>   C                    : -3.172253            6.115077             -9.430730
| 60>   O                    : -2.258837            5.717845             -8.440253
| 61>   H                    : -1.895937            4.816713             -8.604891
| 62>   H                    : -3.875050            5.249466             -9.500495
| 63>   H                    : -3.779067            6.980646             -9.198653
| 64>   H                    : -2.772807            6.321334             -10.463396
| 65>   C                      -0.630207            7.769372             -6.299508
| 66>   O                      -1.047571            8.513318             -5.194869
| 67>   H                      -0.866806            9.427100             -5.300580
| 68>   H                      -1.383374            7.904799             -7.109928
| 69>   H                      0.363272             8.079789             -6.641043
| 70>   H                      -0.580763            6.721230             -6.068428
| 71> *
| 72>
| 73>                          ****END OF INPUT****
 Total Charge           Charge          ....    0
 Multiplicity           Mult            ....    1
 Number of Electrons    NEL             ....   36
Dispersion correction           -0.001490795
FINAL SINGLE POINT ENERGY      -231.465771764238
Dispersion correction           -0.000257956
FINAL SINGLE POINT ENERGY      -115.729643032674

CARTESIAN COORDINATES (ANGSTROEM)
---------------------------------
  C     -3.172253    6.115077   -9.430730
  O     -2.258837    5.717845   -8.440253
  H     -1.895937    4.816713   -8.604891
  H     -3.875050    5.249466   -9.500495
  H     -3.779067    6.980646   -9.198653
  H     -2.772807    6.321334  -10.463396
  C     -0.630207    7.769372   -6.299508
  O     -1.047571    8.513318   -5.194869
  H     -0.866806    9.427100   -5.300580
  H     -1.383374    7.904799   -7.109928
  H      0.363272    8.079789   -6.641043
  H     -0.580763    6.721230   -6.068428

 Multiplicity           Mult            ....    1
 Number of Electrons    NEL             ....   18
 Basis Dimension        Dim             ....  172

ORBITAL ENERGIES
----------------

  NO   OCC          E(Eh)            E(eV)
   0   2.0000     -19.224397      -523.1224
   1   2.0000     -10.312560      -280.6190
   2   2.0000      -1.142880       -31.0994
   3   2.0000      -0.798402       -21.7256
   4   2.0000      -0.614567       -16.7232
   5   2.0000      -0.543750       -14.7962
   6   2.0000      -0.534971       -14.5573
   7   2.0000      -0.427755       -11.6398
   8   2.0000      -0.370757       -10.0888
   9   0.0000       0.083893         2.2828
  10   0.0000       0.119701         3.2572
  11   0.0000       0.148701         4.0464
  12   0.0000       0.166244         4.5237
  13   0.0000       0.196435         5.3453

MULLIKEN ATOMIC CHARGES
-----------------------
   0 C :   -0.000901
   1 O :   -0.000621
   2 H :   -0.000089
   3 H :   -0.000022
   4 H :   -0.000119
   5 H :    0.000052
   6 C :   -0.148231
   7 O :   -0.476353
   8 H :    0.313406
   9 H :    0.098839
  10 H :    0.093892
  11 H :    0.120148
Sum of atomic charges:    0.0000000

LOEWDIN ATOMIC CHARGES
----------------------
   0 C :   -0.002227
   1 O :   -0.004011
   2 H :   -0.000302
   3 H :   -0.000047
   4 H :   -0.000343
   5 H :   -0.000038
   6 C :   -0.390539
   7 O :   -0.055621
   8 H :    0.153989
   9 H :    0.100551
  10 H :    0.093838
  11 H :    0.104750

  Mayer bond orders larger than 0.1
B(  6-C ,  7-O ) :   0.9935 B(  6-C ,  9-H ) :   0.9809 B(  6-C , 10-H ) :   0.9773
B(  6-C , 11-H ) :   0.9706 B(  7-O ,  8-H ) :   0.9010

Dispersion correction           -0.000232875
FINAL SINGLE POINT ENERGY      -115.735281963055

DIPOLE MOMENT
-------------
                                X             Y             Z
Electronic contribution:     -0.52284       0.81697       1.50991
Nuclear contribution   :      0.82253      -0.52339      -1.99769
                        -----------------------------------------
Total Dipole Moment    :      0.29969       0.29358      -0.48778
                        -----------------------------------------
Magnitude (a.u.)       :      0.64338
Magnitude (Debye)      :      1.63533

Rotational constants in cm-1:     4.347992     0.844796     0.821923
Rotational constants in MHz : 130349.515367 25326.336442 24640.636548

                             ****ORCA TERMINATED NORMALLY****
TOTAL RUN TIME: 0 days 0 hours 1 minutes 5 seconds 461 msec
