                         Program Version 4.1.2  - RELEASE  -
|  1> #Run DFT-D3 single point of the dimer
|  2> ! wB97X-D3 def2-TZVP TIGHTSCF CHELPG PMODEL PAL8
|  3>
|  4> %base "11-49_DFT_AB"
|  5>
|  6> %scf
|  7> MaxIter 1000
|  8> end
|  9>
| 10> * xyz 0 1
| 11>   C                      -6.809828            -7.466043            3.576054
| 12>   O                      -7.899568            -7.122431            2.761647
| 13>   H                      -8.485116            -6.571884            3.300043
| 14>   H                      -6.140757            -8.235801            3.211368
| 15>   H                      -6.195975            -6.624707            3.804071
| 16>   H                      -7.153628            -7.872314            4.553636
| 17>   C                      -3.670822            -6.064125            7.339894
| 18>   O                      -4.691461            -6.396064            6.476158
| 19>   H                      -4.406539            -7.041441            5.853589
| 20>   H                      -3.404148            -6.870549            8.037953
| 21>   H                      -2.844383            -5.877841            6.668155
| 22>   H                      -3.914924            -5.255383            8.072797
| 23> *
| 24>
| 25> #Run DFT-D3 single point of the molecule with dimer basis set
| 26> $new_job
| 27> %base "11-49_DFT_A"
| 28> ! wB97X-D3 def2-TZVP TIGHTSCF CHELPG PMODEL
| 29>
| 30> %scf
| 31> MaxIter 1000
| 32> end
| 33>
| 34> * xyz 0 1
| 35>   C                      -6.809828            -7.466043            3.576054
| 36>   O                      -7.899568            -7.122431            2.761647
| 37>   H                      -8.485116            -6.571884            3.300043
| 38>   H                      -6.140757            -8.235801            3.211368
| 39>   H                      -6.195975            -6.624707            3.804071
| 40>   H                      -7.153628            -7.872314            4.553636
| 41>   C                    : -3.670822            -6.064125            7.339894
| 42>   O                    : -4.691461            -6.396064            6.476158
| 43>   H                    : -4.406539            -7.041441            5.853589
| 44>   H                    : -3.404148            -6.870549            8.037953
| 45>   H                    : -2.844383            -5.877841            6.668155
| 46>   H                    : -3.914924            -5.255383            8.072797
| 47> *
| 48>
| 49> #Run DFT-D3 single point of the particle with dimer basis set
| 50> $new_job
| 51> %base "11-49_DFT_B"
| 52> ! wB97X-D3 def2-TZVP TIGHTSCF CHELPG PMODEL
| 53>
| 54> %scf
| 55> MaxIter 1000
| 56> end
| 57>
| 58> * xyz 0 1
| 59>   C                    : -6.809828            -7.466043            3.576054
| 60>   O                    : -7.899568            -7.122431            2.761647
| 61>   H                    : -8.485116            -6.571884            3.300043
| 62>   H                    : -6.140757            -8.235801            3.211368
| 63>   H                    : -6.195975            -6.624707            3.804071
| 64>   H                    : -7.153628            -7.872314            4.553636
| 65>   C                      -3.670822            -6.064125            7.339894
| 66>   O                      -4.691461            -6.396064            6.476158
| 67>   H                      -4.406539            -7.041441            5.853589
| 68>   H                      -3.404148            -6.870549            8.037953
| 69>   H                      -2.844383            -5.877841            6.668155
| 70>   H                      -3.914924            -5.255383            8.072797
| 71> *
| 72>
| 73>                          ****END OF INPUT****
 Total Charge           Charge          ....    0
 Multiplicity           Mult            ....    1
 Number of Electrons    NEL             ....   36
Dispersion correction           -0.001231341
FINAL SINGLE POINT ENERGY      -231.462465110274
Dispersion correction           -0.000234372
FINAL SINGLE POINT ENERGY      -115.733202206695

CARTESIAN COORDINATES (ANGSTROEM)
---------------------------------
  C     -6.809828   -7.466043    3.576054
  O     -7.899568   -7.122431    2.761647
  H     -8.485116   -6.571884    3.300043
  H     -6.140757   -8.235801    3.211368
  H     -6.195975   -6.624707    3.804071
  H     -7.153628   -7.872314    4.553636
  C     -3.670822   -6.064125    7.339894
  O     -4.691461   -6.396064    6.476158
  H     -4.406539   -7.041441    5.853589
  H     -3.404148   -6.870549    8.037953
  H     -2.844383   -5.877841    6.668155
  H     -3.914924   -5.255383    8.072797

 Multiplicity           Mult            ....    1
 Number of Electrons    NEL             ....   18
 Basis Dimension        Dim             ....  172

ORBITAL ENERGIES
----------------

  NO   OCC          E(Eh)            E(eV)
   0   2.0000     -19.225705      -523.1580
   1   2.0000     -10.312641      -280.6212
   2   2.0000      -1.150424       -31.3046
   3   2.0000      -0.795513       -21.6470
   4   2.0000      -0.618719       -16.8362
   5   2.0000      -0.560297       -15.2465
   6   2.0000      -0.526413       -14.3244
   7   2.0000      -0.424459       -11.5501
   8   2.0000      -0.367943       -10.0122
   9   0.0000       0.084690         2.3045
  10   0.0000       0.123722         3.3666
  11   0.0000       0.152292         4.1441
  12   0.0000       0.177222         4.8224
  13   0.0000       0.201314         5.4780

MULLIKEN ATOMIC CHARGES
-----------------------
   0 C :    0.002590
   1 O :   -0.000021
   2 H :   -0.000028
   3 H :   -0.000107
   4 H :   -0.005656
   5 H :   -0.001362
   6 C :   -0.158078
   7 O :   -0.467363
   8 H :    0.318524
   9 H :    0.091677
  10 H :    0.100615
  11 H :    0.119210
Sum of atomic charges:   -0.0000000

LOEWDIN ATOMIC CHARGES
----------------------
   0 C :   -0.002241
   1 O :   -0.000021
   2 H :   -0.000001
   3 H :   -0.000071
   4 H :   -0.002814
   5 H :   -0.000815
   6 C :   -0.412313
   7 O :   -0.043624
   8 H :    0.160829
   9 H :    0.091525
  10 H :    0.095191
  11 H :    0.114353

  Mayer bond orders larger than 0.1
B(  6-C ,  7-O ) :   0.9952 B(  6-C ,  9-H ) :   0.9686 B(  6-C , 10-H ) :   0.9966
B(  6-C , 11-H ) :   0.9692 B(  7-O ,  8-H ) :   0.8951

Dispersion correction           -0.000220017
FINAL SINGLE POINT ENERGY      -115.728266100243

DIPOLE MOMENT
-------------
                                X             Y             Z
Electronic contribution:     -1.42031      -0.26682      -1.07443
Nuclear contribution   :      1.99775      -0.02695       1.01610
                        -----------------------------------------
Total Dipole Moment    :      0.57745      -0.29378      -0.05833
                        -----------------------------------------
Magnitude (a.u.)       :      0.65050
Magnitude (Debye)      :      1.65344

Rotational constants in cm-1:     4.367979     0.867817     0.831457
Rotational constants in MHz : 130948.707391 26016.485263 24926.455337

                             ****ORCA TERMINATED NORMALLY****
TOTAL RUN TIME: 0 days 0 hours 1 minutes 10 seconds 233 msec
