                         Program Version 4.1.2  - RELEASE  -
|  1> #Run DFT-D3 single point of the dimer
|  2> ! wB97X-D3 def2-TZVP TIGHTSCF CHELPG PMODEL PAL8
|  3>
|  4> %base "8-180_DFT_AB"
|  5>
|  6> %scf
|  7> MaxIter 1000
|  8> end
|  9>
| 10> * xyz 0 1
| 11>   C                      3.181583             10.824812            2.357139
| 12>   O                      3.352786             9.447297             2.312862
| 13>   H                      3.442495             9.190709             3.246657
| 14>   H                      3.205216             11.214386            1.317607
| 15>   H                      2.145483             11.195536            2.772562
| 16>   H                      4.087869             11.332881            2.814354
| 17>   C                      6.278651             9.131592             0.310008
| 18>   O                      4.981540             8.722451             -0.021591
| 19>   H                      4.399282             9.081503             0.703388
| 20>   H                      6.369270             9.393353             1.328500
| 21>   H                      7.022365             8.378398             0.114698
| 22>   H                      6.562119             10.081628            -0.112263
| 23> *
| 24>
| 25> #Run DFT-D3 single point of the molecule with dimer basis set
| 26> $new_job
| 27> %base "8-180_DFT_A"
| 28> ! wB97X-D3 def2-TZVP TIGHTSCF CHELPG PMODEL
| 29>
| 30> %scf
| 31> MaxIter 1000
| 32> end
| 33>
| 34> * xyz 0 1
| 35>   C                      3.181583             10.824812            2.357139
| 36>   O                      3.352786             9.447297             2.312862
| 37>   H                      3.442495             9.190709             3.246657
| 38>   H                      3.205216             11.214386            1.317607
| 39>   H                      2.145483             11.195536            2.772562
| 40>   H                      4.087869             11.332881            2.814354
| 41>   C                    : 6.278651             9.131592             0.310008
| 42>   O                    : 4.981540             8.722451             -0.021591
| 43>   H                    : 4.399282             9.081503             0.703388
| 44>   H                    : 6.369270             9.393353             1.328500
| 45>   H                    : 7.022365             8.378398             0.114698
| 46>   H                    : 6.562119             10.081628            -0.112263
| 47> *
| 48>
| 49> #Run DFT-D3 single point of the particle with dimer basis set
| 50> $new_job
| 51> %base "8-180_DFT_B"
| 52> ! wB97X-D3 def2-TZVP TIGHTSCF CHELPG PMODEL
| 53>
| 54> %scf
| 55> MaxIter 1000
| 56> end
| 57>
| 58> * xyz 0 1
| 59>   C                    : 3.181583             10.824812            2.357139
| 60>   O                    : 3.352786             9.447297             2.312862
| 61>   H                    : 3.442495             9.190709             3.246657
| 62>   H                    : 3.205216             11.214386            1.317607
| 63>   H                    : 2.145483             11.195536            2.772562
| 64>   H                    : 4.087869             11.332881            2.814354
| 65>   C                      6.278651             9.131592             0.310008
| 66>   O                      4.981540             8.722451             -0.021591
| 67>   H                      4.399282             9.081503             0.703388
| 68>   H                      6.369270             9.393353             1.328500
| 69>   H                      7.022365             8.378398             0.114698
| 70>   H                      6.562119             10.081628            -0.112263
| 71> *
| 72>
| 73>                          ****END OF INPUT****
 Total Charge           Charge          ....    0
 Multiplicity           Mult            ....    1
 Number of Electrons    NEL             ....   36
Dispersion correction           -0.001992376
FINAL SINGLE POINT ENERGY      -231.467751689376
Dispersion correction           -0.000256820
FINAL SINGLE POINT ENERGY      -115.730113681017

CARTESIAN COORDINATES (ANGSTROEM)
---------------------------------
  C      3.181583   10.824812    2.357139
  O      3.352786    9.447297    2.312862
  H      3.442495    9.190709    3.246657
  H      3.205216   11.214386    1.317607
  H      2.145483   11.195536    2.772562
  H      4.087869   11.332881    2.814354
  C      6.278651    9.131592    0.310008
  O      4.981540    8.722451   -0.021591
  H      4.399282    9.081503    0.703388
  H      6.369270    9.393353    1.328500
  H      7.022365    8.378398    0.114698
  H      6.562119   10.081628   -0.112263

 Multiplicity           Mult            ....    1
 Number of Electrons    NEL             ....   18
 Basis Dimension        Dim             ....  172

ORBITAL ENERGIES
----------------

  NO   OCC          E(Eh)            E(eV)
   0   2.0000     -19.235849      -523.4341
   1   2.0000     -10.303198      -280.3643
   2   2.0000      -1.136455       -30.9245
   3   2.0000      -0.798667       -21.7328
   4   2.0000      -0.617565       -16.8048
   5   2.0000      -0.543419       -14.7872
   6   2.0000      -0.526599       -14.3295
   7   2.0000      -0.436742       -11.8843
   8   2.0000      -0.372951       -10.1485
   9   0.0000       0.063593         1.7304
  10   0.0000       0.139614         3.7991
  11   0.0000       0.146260         3.9799
  12   0.0000       0.158539         4.3141
  13   0.0000       0.188787         5.1372

MULLIKEN ATOMIC CHARGES
-----------------------
   0 C :   -0.002696
   1 O :   -0.002200
   2 H :   -0.000090
   3 H :   -0.001863
   4 H :   -0.000188
   5 H :    0.000185
   6 C :   -0.166941
   7 O :   -0.462660
   8 H :    0.318064
   9 H :    0.103354
  10 H :    0.120884
  11 H :    0.094151
Sum of atomic charges:    0.0000000

LOEWDIN ATOMIC CHARGES
----------------------
   0 C :   -0.006773
   1 O :   -0.018240
   2 H :   -0.000854
   3 H :   -0.002013
   4 H :   -0.000106
   5 H :   -0.000237
   6 C :   -0.396297
   7 O :   -0.066949
   8 H :    0.205646
   9 H :    0.089651
  10 H :    0.102885
  11 H :    0.093285

  Mayer bond orders larger than 0.1
B(  6-C ,  7-O ) :   1.0010 B(  6-C ,  9-H ) :   0.9854 B(  6-C , 10-H ) :   0.9764
B(  6-C , 11-H ) :   0.9747 B(  7-O ,  8-H ) :   0.9039

Dispersion correction           -0.000232689
FINAL SINGLE POINT ENERGY      -115.729800896380

DIPOLE MOMENT
-------------
                                X             Y             Z
Electronic contribution:     -1.65393      -0.71274      -0.65142
Nuclear contribution   :      1.79667       1.09845       1.26993
                        -----------------------------------------
Total Dipole Moment    :      0.14273       0.38571       0.61852
                        -----------------------------------------
Magnitude (a.u.)       :      0.74277
Magnitude (Debye)      :      1.88798

Rotational constants in cm-1:     4.461267     0.845298     0.809371
Rotational constants in MHz : 133745.427434 25341.401626 24264.343196

                             ****ORCA TERMINATED NORMALLY****
TOTAL RUN TIME: 0 days 0 hours 0 minutes 45 seconds 653 msec
