                         Program Version 4.1.2  - RELEASE  -
|  1> #Run DFT-D3 single point of the dimer
|  2> ! wB97X-D3 def2-TZVP TIGHTSCF CHELPG PMODEL PAL8
|  3>
|  4> %base "6-114_DFT_AB"
|  5>
|  6> %scf
|  7> MaxIter 1000
|  8> end
|  9>
| 10> * xyz 0 1
| 11>   C                      6.494887             -9.319664            0.599304
| 12>   O                      6.530466             -9.264981            2.010500
| 13>   H                      6.957669             -10.100235           2.248466
| 14>   H                      5.656828             -9.905448            0.193507
| 15>   H                      6.395575             -8.342034            0.169458
| 16>   H                      7.472226             -9.620610            0.188917
| 17>   C                      8.866434             -5.670255            1.599576
| 18>   O                      8.826219             -6.242115            0.320138
| 19>   H                      9.201282             -7.120479            0.479184
| 20>   H                      9.917216             -5.639698            2.097436
| 21>   H                      8.590138             -4.618633            1.682096
| 22>   H                      8.329119             -6.216930            2.375969
| 23> *
| 24>
| 25> #Run DFT-D3 single point of the molecule with dimer basis set
| 26> $new_job
| 27> %base "6-114_DFT_A"
| 28> ! wB97X-D3 def2-TZVP TIGHTSCF CHELPG PMODEL
| 29>
| 30> %scf
| 31> MaxIter 1000
| 32> end
| 33>
| 34> * xyz 0 1
| 35>   C                      6.494887             -9.319664            0.599304
| 36>   O                      6.530466             -9.264981            2.010500
| 37>   H                      6.957669             -10.100235           2.248466
| 38>   H                      5.656828             -9.905448            0.193507
| 39>   H                      6.395575             -8.342034            0.169458
| 40>   H                      7.472226             -9.620610            0.188917
| 41>   C                    : 8.866434             -5.670255            1.599576
| 42>   O                    : 8.826219             -6.242115            0.320138
| 43>   H                    : 9.201282             -7.120479            0.479184
| 44>   H                    : 9.917216             -5.639698            2.097436
| 45>   H                    : 8.590138             -4.618633            1.682096
| 46>   H                    : 8.329119             -6.216930            2.375969
| 47> *
| 48>
| 49> #Run DFT-D3 single point of the particle with dimer basis set
| 50> $new_job
| 51> %base "6-114_DFT_B"
| 52> ! wB97X-D3 def2-TZVP TIGHTSCF CHELPG PMODEL
| 53>
| 54> %scf
| 55> MaxIter 1000
| 56> end
| 57>
| 58> * xyz 0 1
| 59>   C                    : 6.494887             -9.319664            0.599304
| 60>   O                    : 6.530466             -9.264981            2.010500
| 61>   H                    : 6.957669             -10.100235           2.248466
| 62>   H                    : 5.656828             -9.905448            0.193507
| 63>   H                    : 6.395575             -8.342034            0.169458
| 64>   H                    : 7.472226             -9.620610            0.188917
| 65>   C                      8.866434             -5.670255            1.599576
| 66>   O                      8.826219             -6.242115            0.320138
| 67>   H                      9.201282             -7.120479            0.479184
| 68>   H                      9.917216             -5.639698            2.097436
| 69>   H                      8.590138             -4.618633            1.682096
| 70>   H                      8.329119             -6.216930            2.375969
| 71> *
| 72>
| 73>                          ****END OF INPUT****
 Total Charge           Charge          ....    0
 Multiplicity           Mult            ....    1
 Number of Electrons    NEL             ....   36
Dispersion correction           -0.001557579
FINAL SINGLE POINT ENERGY      -231.464483567953
Dispersion correction           -0.000238372
FINAL SINGLE POINT ENERGY      -115.733882827502

CARTESIAN COORDINATES (ANGSTROEM)
---------------------------------
  C      6.494887   -9.319664    0.599304
  O      6.530466   -9.264981    2.010500
  H      6.957669  -10.100235    2.248466
  H      5.656828   -9.905448    0.193507
  H      6.395575   -8.342034    0.169458
  H      7.472226   -9.620610    0.188917
  C      8.866434   -5.670255    1.599576
  O      8.826219   -6.242115    0.320138
  H      9.201282   -7.120479    0.479184
  H      9.917216   -5.639698    2.097436
  H      8.590138   -4.618633    1.682096
  H      8.329119   -6.216930    2.375969

 Multiplicity           Mult            ....    1
 Number of Electrons    NEL             ....   18
 Basis Dimension        Dim             ....  172

ORBITAL ENERGIES
----------------

  NO   OCC          E(Eh)            E(eV)
   0   2.0000     -19.242377      -523.6117
   1   2.0000     -10.319943      -280.8199
   2   2.0000      -1.147586       -31.2274
   3   2.0000      -0.792410       -21.5626
   4   2.0000      -0.617935       -16.8149
   5   2.0000      -0.539269       -14.6743
   6   2.0000      -0.525537       -14.3006
   7   2.0000      -0.441897       -12.0246
   8   2.0000      -0.373310       -10.1583
   9   0.0000       0.077697         2.1142
  10   0.0000       0.126422         3.4401
  11   0.0000       0.142674         3.8823
  12   0.0000       0.169437         4.6106
  13   0.0000       0.186271         5.0687

MULLIKEN ATOMIC CHARGES
-----------------------
   0 C :   -0.003290
   1 O :    0.000323
   2 H :    0.000006
   3 H :   -0.000414
   4 H :   -0.002929
   5 H :    0.000303
   6 C :   -0.195860
   7 O :   -0.449016
   8 H :    0.323471
   9 H :    0.092281
  10 H :    0.127733
  11 H :    0.107392
Sum of atomic charges:    0.0000000

LOEWDIN ATOMIC CHARGES
----------------------
   0 C :   -0.003132
   1 O :   -0.000185
   2 H :   -0.000023
   3 H :   -0.000055
   4 H :   -0.002769
   5 H :   -0.000566
   6 C :   -0.418675
   7 O :   -0.057879
   8 H :    0.183071
   9 H :    0.101407
  10 H :    0.107293
  11 H :    0.091515

  Mayer bond orders larger than 0.1
B(  6-C ,  7-O ) :   1.0089 B(  6-C ,  9-H ) :   0.9762 B(  6-C , 10-H ) :   0.9729
B(  6-C , 11-H ) :   0.9690 B(  7-O ,  8-H ) :   0.8945

Dispersion correction           -0.000252858
FINAL SINGLE POINT ENERGY      -115.728885802090

DIPOLE MOMENT
-------------
                                X             Y             Z
Electronic contribution:     -0.30529      -0.63300      -2.01230
Nuclear contribution   :      0.54391       0.31755       2.58166
                        -----------------------------------------
Total Dipole Moment    :      0.23863      -0.31545       0.56935
                        -----------------------------------------
Magnitude (a.u.)       :      0.69326
Magnitude (Debye)      :      1.76213

Rotational constants in cm-1:     4.350235     0.827249     0.792050
Rotational constants in MHz : 130416.763246 24800.315790 23745.059514

                             ****ORCA TERMINATED NORMALLY****
TOTAL RUN TIME: 0 days 0 hours 1 minutes 2 seconds 99 msec
