                         Program Version 4.1.2  - RELEASE  -
|  1> #Run DFT-D3 single point of the dimer
|  2> ! wB97X-D3 def2-TZVP TIGHTSCF CHELPG PMODEL PAL8
|  3>
|  4> %base "15-183_DFT_AB"
|  5>
|  6> %scf
|  7> MaxIter 1000
|  8> end
|  9>
| 10> * xyz 0 1
| 11>   C                      6.775463             -7.856936            9.793855
| 12>   O                      7.177662             -6.719258            9.004089
| 13>   H                      7.616840             -7.100474            8.215127
| 14>   H                      7.631178             -8.159640            10.426616
| 15>   H                      5.800741             -7.666775            10.458928
| 16>   H                      6.628970             -8.660253            9.101979
| 17>   C                      4.172070             -4.404791            9.266475
| 18>   O                      4.568291             -5.770132            9.094948
| 19>   H                      5.481680             -5.952398            9.237084
| 20>   H                      3.093478             -4.262770            9.240783
| 21>   H                      4.577018             -4.151827            10.280328
| 22>   H                      4.635899             -3.712360            8.532662
| 23> *
| 24>
| 25> #Run DFT-D3 single point of the molecule with dimer basis set
| 26> $new_job
| 27> %base "15-183_DFT_A"
| 28> ! wB97X-D3 def2-TZVP TIGHTSCF CHELPG PMODEL
| 29>
| 30> %scf
| 31> MaxIter 1000
| 32> end
| 33>
| 34> * xyz 0 1
| 35>   C                      6.775463             -7.856936            9.793855
| 36>   O                      7.177662             -6.719258            9.004089
| 37>   H                      7.616840             -7.100474            8.215127
| 38>   H                      7.631178             -8.159640            10.426616
| 39>   H                      5.800741             -7.666775            10.458928
| 40>   H                      6.628970             -8.660253            9.101979
| 41>   C                    : 4.172070             -4.404791            9.266475
| 42>   O                    : 4.568291             -5.770132            9.094948
| 43>   H                    : 5.481680             -5.952398            9.237084
| 44>   H                    : 3.093478             -4.262770            9.240783
| 45>   H                    : 4.577018             -4.151827            10.280328
| 46>   H                    : 4.635899             -3.712360            8.532662
| 47> *
| 48>
| 49> #Run DFT-D3 single point of the particle with dimer basis set
| 50> $new_job
| 51> %base "15-183_DFT_B"
| 52> ! wB97X-D3 def2-TZVP TIGHTSCF CHELPG PMODEL
| 53>
| 54> %scf
| 55> MaxIter 1000
| 56> end
| 57>
| 58> * xyz 0 1
| 59>   C                    : 6.775463             -7.856936            9.793855
| 60>   O                    : 7.177662             -6.719258            9.004089
| 61>   H                    : 7.616840             -7.100474            8.215127
| 62>   H                    : 7.631178             -8.159640            10.426616
| 63>   H                    : 5.800741             -7.666775            10.458928
| 64>   H                    : 6.628970             -8.660253            9.101979
| 65>   C                      4.172070             -4.404791            9.266475
| 66>   O                      4.568291             -5.770132            9.094948
| 67>   H                      5.481680             -5.952398            9.237084
| 68>   H                      3.093478             -4.262770            9.240783
| 69>   H                      4.577018             -4.151827            10.280328
| 70>   H                      4.635899             -3.712360            8.532662
| 71> *
| 72>
| 73>                          ****END OF INPUT****
 Total Charge           Charge          ....    0
 Multiplicity           Mult            ....    1
 Number of Electrons    NEL             ....   36
Dispersion correction           -0.001742581
FINAL SINGLE POINT ENERGY      -231.464034438997
Dispersion correction           -0.000247274
FINAL SINGLE POINT ENERGY      -115.726425550806

CARTESIAN COORDINATES (ANGSTROEM)
---------------------------------
  C      6.775463   -7.856936    9.793855
  O      7.177662   -6.719258    9.004089
  H      7.616840   -7.100474    8.215127
  H      7.631178   -8.159640   10.426616
  H      5.800741   -7.666775   10.458928
  H      6.628970   -8.660253    9.101979
  C      4.172070   -4.404791    9.266475
  O      4.568291   -5.770132    9.094948
  H      5.481680   -5.952398    9.237084
  H      3.093478   -4.262770    9.240783
  H      4.577018   -4.151827   10.280328
  H      4.635899   -3.712360    8.532662

 Multiplicity           Mult            ....    1
 Number of Electrons    NEL             ....   18
 Basis Dimension        Dim             ....  172

ORBITAL ENERGIES
----------------

  NO   OCC          E(Eh)            E(eV)
   0   2.0000     -19.224367      -523.1216
   1   2.0000     -10.321429      -280.8604
   2   2.0000      -1.129290       -30.7295
   3   2.0000      -0.798364       -21.7246
   4   2.0000      -0.607995       -16.5444
   5   2.0000      -0.539786       -14.6883
   6   2.0000      -0.532115       -14.4796
   7   2.0000      -0.423661       -11.5284
   8   2.0000      -0.370306       -10.0765
   9   0.0000       0.077281         2.1029
  10   0.0000       0.132797         3.6136
  11   0.0000       0.158754         4.3199
  12   0.0000       0.164111         4.4657
  13   0.0000       0.197170         5.3653

MULLIKEN ATOMIC CHARGES
-----------------------
   0 C :    0.002867
   1 O :   -0.002811
   2 H :   -0.000576
   3 H :    0.000196
   4 H :   -0.007987
   5 H :   -0.000131
   6 C :   -0.154768
   7 O :   -0.482542
   8 H :    0.313242
   9 H :    0.129419
  10 H :    0.100196
  11 H :    0.102894
Sum of atomic charges:    0.0000000

LOEWDIN ATOMIC CHARGES
----------------------
   0 C :   -0.014576
   1 O :   -0.021088
   2 H :   -0.001230
   3 H :   -0.000110
   4 H :   -0.007683
   5 H :   -0.000263
   6 C :   -0.365289
   7 O :   -0.066616
   8 H :    0.169569
   9 H :    0.107794
  10 H :    0.102551
  11 H :    0.096941

  Mayer bond orders larger than 0.1
B(  6-C ,  7-O ) :   0.9826 B(  6-C ,  9-H ) :   0.9680 B(  6-C , 10-H ) :   0.9920
B(  6-C , 11-H ) :   0.9688 B(  7-O ,  8-H ) :   0.8984

Dispersion correction           -0.000255729
FINAL SINGLE POINT ENERGY      -115.731443130711

DIPOLE MOMENT
-------------
                                X             Y             Z
Electronic contribution:      0.25028      -1.69980      -0.34028
Nuclear contribution   :      0.16196       2.17104       0.50452
                        -----------------------------------------
Total Dipole Moment    :      0.41224       0.47123       0.16424
                        -----------------------------------------
Magnitude (a.u.)       :      0.64728
Magnitude (Debye)      :      1.64527

Rotational constants in cm-1:     4.322857     0.806198     0.781265
Rotational constants in MHz : 129595.992921 24169.203866 23421.738093

                             ****ORCA TERMINATED NORMALLY****
TOTAL RUN TIME: 0 days 0 hours 1 minutes 8 seconds 57 msec
