                         Program Version 4.1.2  - RELEASE  -
|  1> #Run DFT-D3 single point of the dimer
|  2> ! wB97X-D3 def2-TZVP TIGHTSCF CHELPG PMODEL PAL8
|  3>
|  4> %base "5-19_DFT_AB"
|  5>
|  6> %scf
|  7> MaxIter 1000
|  8> end
|  9>
| 10> * xyz 0 1
| 11>   C                      4.682052             -4.285258            7.565120
| 12>   O                      4.866444             -3.775011            6.253769
| 13>   H                      4.430609             -2.921144            6.243393
| 14>   H                      4.396078             -3.482571            8.277853
| 15>   H                      3.896837             -5.017560            7.602140
| 16>   H                      5.548066             -4.676643            7.981622
| 17>   C                      2.782346             -7.242801            9.263884
| 18>   O                      1.547861             -7.287744            9.985859
| 19>   H                      1.307894             -8.208495            9.985656
| 20>   H                      3.617748             -7.679900            9.859829
| 21>   H                      2.737972             -7.805422            8.302602
| 22>   H                      3.019840             -6.236979            8.907746
| 23> *
| 24>
| 25> #Run DFT-D3 single point of the molecule with dimer basis set
| 26> $new_job
| 27> %base "5-19_DFT_A"
| 28> ! wB97X-D3 def2-TZVP TIGHTSCF CHELPG PMODEL
| 29>
| 30> %scf
| 31> MaxIter 1000
| 32> end
| 33>
| 34> * xyz 0 1
| 35>   C                      4.682052             -4.285258            7.565120
| 36>   O                      4.866444             -3.775011            6.253769
| 37>   H                      4.430609             -2.921144            6.243393
| 38>   H                      4.396078             -3.482571            8.277853
| 39>   H                      3.896837             -5.017560            7.602140
| 40>   H                      5.548066             -4.676643            7.981622
| 41>   C                    : 2.782346             -7.242801            9.263884
| 42>   O                    : 1.547861             -7.287744            9.985859
| 43>   H                    : 1.307894             -8.208495            9.985656
| 44>   H                    : 3.617748             -7.679900            9.859829
| 45>   H                    : 2.737972             -7.805422            8.302602
| 46>   H                    : 3.019840             -6.236979            8.907746
| 47> *
| 48>
| 49> #Run DFT-D3 single point of the particle with dimer basis set
| 50> $new_job
| 51> %base "5-19_DFT_B"
| 52> ! wB97X-D3 def2-TZVP TIGHTSCF CHELPG PMODEL
| 53>
| 54> %scf
| 55> MaxIter 1000
| 56> end
| 57>
| 58> * xyz 0 1
| 59>   C                    : 4.682052             -4.285258            7.565120
| 60>   O                    : 4.866444             -3.775011            6.253769
| 61>   H                    : 4.430609             -2.921144            6.243393
| 62>   H                    : 4.396078             -3.482571            8.277853
| 63>   H                    : 3.896837             -5.017560            7.602140
| 64>   H                    : 5.548066             -4.676643            7.981622
| 65>   C                      2.782346             -7.242801            9.263884
| 66>   O                      1.547861             -7.287744            9.985859
| 67>   H                      1.307894             -8.208495            9.985656
| 68>   H                      3.617748             -7.679900            9.859829
| 69>   H                      2.737972             -7.805422            8.302602
| 70>   H                      3.019840             -6.236979            8.907746
| 71> *
| 72>
| 73>                          ****END OF INPUT****
 Total Charge           Charge          ....    0
 Multiplicity           Mult            ....    1
 Number of Electrons    NEL             ....   36
Dispersion correction           -0.001340730
FINAL SINGLE POINT ENERGY      -231.466492299013
Dispersion correction           -0.000239376
FINAL SINGLE POINT ENERGY      -115.732464874205

CARTESIAN COORDINATES (ANGSTROEM)
---------------------------------
  C      4.682052   -4.285258    7.565120
  O      4.866444   -3.775011    6.253769
  H      4.430609   -2.921144    6.243393
  H      4.396078   -3.482571    8.277853
  H      3.896837   -5.017560    7.602140
  H      5.548066   -4.676643    7.981622
  C      2.782346   -7.242801    9.263884
  O      1.547861   -7.287744    9.985859
  H      1.307894   -8.208495    9.985656
  H      3.617748   -7.679900    9.859829
  H      2.737972   -7.805422    8.302602
  H      3.019840   -6.236979    8.907746

 Multiplicity           Mult            ....    1
 Number of Electrons    NEL             ....   18
 Basis Dimension        Dim             ....  172

ORBITAL ENERGIES
----------------

  NO   OCC          E(Eh)            E(eV)
   0   2.0000     -19.232677      -523.3477
   1   2.0000     -10.319277      -280.8018
   2   2.0000      -1.136293       -30.9201
   3   2.0000      -0.793401       -21.5895
   4   2.0000      -0.607776       -16.5384
   5   2.0000      -0.542827       -14.7711
   6   2.0000      -0.521394       -14.1879
   7   2.0000      -0.436765       -11.8850
   8   2.0000      -0.376145       -10.2354
   9   0.0000       0.086343         2.3495
  10   0.0000       0.116568         3.1720
  11   0.0000       0.148436         4.0392
  12   0.0000       0.176615         4.8059
  13   0.0000       0.188149         5.1198

MULLIKEN ATOMIC CHARGES
-----------------------
   0 C :    0.002524
   1 O :   -0.000025
   2 H :   -0.000008
   3 H :   -0.000330
   4 H :   -0.004320
   5 H :   -0.000243
   6 C :   -0.174517
   7 O :   -0.465072
   8 H :    0.314384
   9 H :    0.102033
  10 H :    0.100767
  11 H :    0.124809
Sum of atomic charges:    0.0000000

LOEWDIN ATOMIC CHARGES
----------------------
   0 C :   -0.005707
   1 O :   -0.000021
   2 H :   -0.000005
   3 H :   -0.000212
   4 H :   -0.009490
   5 H :   -0.000222
   6 C :   -0.378918
   7 O :   -0.082778
   8 H :    0.164492
   9 H :    0.099631
  10 H :    0.099410
  11 H :    0.113820

  Mayer bond orders larger than 0.1
B(  6-C ,  7-O ) :   1.0118 B(  6-C ,  9-H ) :   0.9687 B(  6-C , 10-H ) :   0.9786
B(  6-C , 11-H ) :   0.9717 B(  7-O ,  8-H ) :   0.9026

Dispersion correction           -0.000248888
FINAL SINGLE POINT ENERGY      -115.734309757224

DIPOLE MOMENT
-------------
                                X             Y             Z
Electronic contribution:     -1.61103       0.14784       1.03979
Nuclear contribution   :      1.93850      -0.70265      -1.34723
                        -----------------------------------------
Total Dipole Moment    :      0.32747      -0.55482      -0.30744
                        -----------------------------------------
Magnitude (a.u.)       :      0.71385
Magnitude (Debye)      :      1.81446

Rotational constants in cm-1:     4.245715     0.809414     0.785185
Rotational constants in MHz : 127283.336221 24265.624641 23539.266684

                             ****ORCA TERMINATED NORMALLY****
TOTAL RUN TIME: 0 days 0 hours 0 minutes 55 seconds 103 msec
