                         Program Version 4.1.2  - RELEASE  -
|  1> #Run DFT-D3 single point of the dimer
|  2> ! wB97X-D3 def2-TZVP TIGHTSCF CHELPG PMODEL PAL8
|  3>
|  4> %base "17-190_DFT_AB"
|  5>
|  6> %scf
|  7> MaxIter 1000
|  8> end
|  9>
| 10> * xyz 0 1
| 11>   C                      2.446534             -0.957080            0.953767
| 12>   O                      2.263740             0.339248             0.481250
| 13>   H                      1.355955             0.315129             0.097831
| 14>   H                      3.538243             -1.159601            1.151109
| 15>   H                      1.993574             -1.125897            1.934658
| 16>   H                      2.053428             -1.697646            0.202763
| 17>   C                      0.546155             -0.386009            -2.246830
| 18>   O                      -0.111670            -0.141035            -1.018801
| 19>   H                      -0.654529            0.653653             -1.151172
| 20>   H                      1.184324             0.479456             -2.585590
| 21>   H                      1.090515             -1.314380            -2.225483
| 22>   H                      -0.141371            -0.503635            -3.086953
| 23> *
| 24>
| 25> #Run DFT-D3 single point of the molecule with dimer basis set
| 26> $new_job
| 27> %base "17-190_DFT_A"
| 28> ! wB97X-D3 def2-TZVP TIGHTSCF CHELPG PMODEL
| 29>
| 30> %scf
| 31> MaxIter 1000
| 32> end
| 33>
| 34> * xyz 0 1
| 35>   C                      2.446534             -0.957080            0.953767
| 36>   O                      2.263740             0.339248             0.481250
| 37>   H                      1.355955             0.315129             0.097831
| 38>   H                      3.538243             -1.159601            1.151109
| 39>   H                      1.993574             -1.125897            1.934658
| 40>   H                      2.053428             -1.697646            0.202763
| 41>   C                    : 0.546155             -0.386009            -2.246830
| 42>   O                    : -0.111670            -0.141035            -1.018801
| 43>   H                    : -0.654529            0.653653             -1.151172
| 44>   H                    : 1.184324             0.479456             -2.585590
| 45>   H                    : 1.090515             -1.314380            -2.225483
| 46>   H                    : -0.141371            -0.503635            -3.086953
| 47> *
| 48>
| 49> #Run DFT-D3 single point of the particle with dimer basis set
| 50> $new_job
| 51> %base "17-190_DFT_B"
| 52> ! wB97X-D3 def2-TZVP TIGHTSCF CHELPG PMODEL
| 53>
| 54> %scf
| 55> MaxIter 1000
| 56> end
| 57>
| 58> * xyz 0 1
| 59>   C                    : 2.446534             -0.957080            0.953767
| 60>   O                    : 2.263740             0.339248             0.481250
| 61>   H                    : 1.355955             0.315129             0.097831
| 62>   H                    : 3.538243             -1.159601            1.151109
| 63>   H                    : 1.993574             -1.125897            1.934658
| 64>   H                    : 2.053428             -1.697646            0.202763
| 65>   C                      0.546155             -0.386009            -2.246830
| 66>   O                      -0.111670            -0.141035            -1.018801
| 67>   H                      -0.654529            0.653653             -1.151172
| 68>   H                      1.184324             0.479456             -2.585590
| 69>   H                      1.090515             -1.314380            -2.225483
| 70>   H                      -0.141371            -0.503635            -3.086953
| 71> *
| 72>
| 73>                          ****END OF INPUT****
 Total Charge           Charge          ....    0
 Multiplicity           Mult            ....    1
 Number of Electrons    NEL             ....   36
Dispersion correction           -0.002163990
FINAL SINGLE POINT ENERGY      -231.477859735238
Dispersion correction           -0.000232080
FINAL SINGLE POINT ENERGY      -115.733595643681

CARTESIAN COORDINATES (ANGSTROEM)
---------------------------------
  C      2.446534   -0.957080    0.953767
  O      2.263740    0.339248    0.481250
  H      1.355955    0.315129    0.097831
  H      3.538243   -1.159601    1.151109
  H      1.993574   -1.125897    1.934658
  H      2.053428   -1.697646    0.202763
  C      0.546155   -0.386009   -2.246830
  O     -0.111670   -0.141035   -1.018801
  H     -0.654529    0.653653   -1.151172
  H      1.184324    0.479456   -2.585590
  H      1.090515   -1.314380   -2.225483
  H     -0.141371   -0.503635   -3.086953

 Multiplicity           Mult            ....    1
 Number of Electrons    NEL             ....   18
 Basis Dimension        Dim             ....  172

ORBITAL ENERGIES
----------------

  NO   OCC          E(Eh)            E(eV)
   0   2.0000     -19.235571      -523.4265
   1   2.0000     -10.315020      -280.6860
   2   2.0000      -1.136860       -30.9355
   3   2.0000      -0.795110       -21.6360
   4   2.0000      -0.613428       -16.6922
   5   2.0000      -0.538043       -14.6409
   6   2.0000      -0.525639       -14.3034
   7   2.0000      -0.440680       -11.9915
   8   2.0000      -0.372519       -10.1368
   9   0.0000       0.098690         2.6855
  10   0.0000       0.125126         3.4049
  11   0.0000       0.150552         4.0967
  12   0.0000       0.184721         5.0265
  13   0.0000       0.196259         5.3405

MULLIKEN ATOMIC CHARGES
-----------------------
   0 C :    0.006361
   1 O :    0.000015
   2 H :   -0.015837
   3 H :   -0.000024
   4 H :   -0.000811
   5 H :   -0.001674
   6 C :   -0.179507
   7 O :   -0.463372
   8 H :    0.317049
   9 H :    0.104767
  10 H :    0.126709
  11 H :    0.106324
Sum of atomic charges:    0.0000000

LOEWDIN ATOMIC CHARGES
----------------------
   0 C :   -0.005701
   1 O :   -0.005362
   2 H :   -0.047352
   3 H :   -0.000048
   4 H :   -0.000157
   5 H :   -0.002155
   6 C :   -0.387347
   7 O :   -0.033669
   8 H :    0.178855
   9 H :    0.101675
  10 H :    0.106996
  11 H :    0.094265

  Mayer bond orders larger than 0.1
B(  6-C ,  7-O ) :   0.9842 B(  6-C ,  9-H ) :   0.9768 B(  6-C , 10-H ) :   0.9747
B(  6-C , 11-H ) :   0.9715 B(  7-O ,  8-H ) :   0.8954

Dispersion correction           -0.000244924
FINAL SINGLE POINT ENERGY      -115.734891202721

DIPOLE MOMENT
-------------
                                X             Y             Z
Electronic contribution:     -0.75611       0.12953       1.76259
Nuclear contribution   :      0.64933       0.24698      -2.34268
                        -----------------------------------------
Total Dipole Moment    :     -0.10677       0.37651      -0.58008
                        -----------------------------------------
Magnitude (a.u.)       :      0.69976
Magnitude (Debye)      :      1.77864

Rotational constants in cm-1:     4.303720     0.827743     0.791600
Rotational constants in MHz : 129022.277850 24815.121820 23731.567859

                             ****ORCA TERMINATED NORMALLY****
TOTAL RUN TIME: 0 days 0 hours 1 minutes 13 seconds 742 msec
