                         Program Version 4.1.2  - RELEASE  -
|  1> #Run DFT-D3 single point of the dimer
|  2> ! wB97X-D3 def2-TZVP TIGHTSCF CHELPG PMODEL PAL8
|  3>
|  4> %base "19-22_DFT_AB"
|  5>
|  6> %scf
|  7> MaxIter 1000
|  8> end
|  9>
| 10> * xyz 0 1
| 11>   C                      9.121018             -8.002332            -6.658130
| 12>   O                      10.161908            -7.980103            -7.581041
| 13>   H                      10.228390            -8.853579            -7.970329
| 14>   H                      8.705024             -7.045005            -6.526222
| 15>   H                      8.234115             -8.471532            -7.034247
| 16>   H                      9.419755             -8.306082            -5.708888
| 17>   C                      8.381037             -9.221024            -2.445365
| 18>   O                      7.711288             -9.785594            -3.581768
| 19>   H                      7.153848             -9.079811            -3.973077
| 20>   H                      7.701811             -9.104353            -1.629478
| 21>   H                      9.079876             -9.952231            -2.183109
| 22>   H                      8.852604             -8.316169            -2.784880
| 23> *
| 24>
| 25> #Run DFT-D3 single point of the molecule with dimer basis set
| 26> $new_job
| 27> %base "19-22_DFT_A"
| 28> ! wB97X-D3 def2-TZVP TIGHTSCF CHELPG PMODEL
| 29>
| 30> %scf
| 31> MaxIter 1000
| 32> end
| 33>
| 34> * xyz 0 1
| 35>   C                      9.121018             -8.002332            -6.658130
| 36>   O                      10.161908            -7.980103            -7.581041
| 37>   H                      10.228390            -8.853579            -7.970329
| 38>   H                      8.705024             -7.045005            -6.526222
| 39>   H                      8.234115             -8.471532            -7.034247
| 40>   H                      9.419755             -8.306082            -5.708888
| 41>   C                    : 8.381037             -9.221024            -2.445365
| 42>   O                    : 7.711288             -9.785594            -3.581768
| 43>   H                    : 7.153848             -9.079811            -3.973077
| 44>   H                    : 7.701811             -9.104353            -1.629478
| 45>   H                    : 9.079876             -9.952231            -2.183109
| 46>   H                    : 8.852604             -8.316169            -2.784880
| 47> *
| 48>
| 49> #Run DFT-D3 single point of the particle with dimer basis set
| 50> $new_job
| 51> %base "19-22_DFT_B"
| 52> ! wB97X-D3 def2-TZVP TIGHTSCF CHELPG PMODEL
| 53>
| 54> %scf
| 55> MaxIter 1000
| 56> end
| 57>
| 58> * xyz 0 1
| 59>   C                    : 9.121018             -8.002332            -6.658130
| 60>   O                    : 10.161908            -7.980103            -7.581041
| 61>   H                    : 10.228390            -8.853579            -7.970329
| 62>   H                    : 8.705024             -7.045005            -6.526222
| 63>   H                    : 8.234115             -8.471532            -7.034247
| 64>   H                    : 9.419755             -8.306082            -5.708888
| 65>   C                      8.381037             -9.221024            -2.445365
| 66>   O                      7.711288             -9.785594            -3.581768
| 67>   H                      7.153848             -9.079811            -3.973077
| 68>   H                      7.701811             -9.104353            -1.629478
| 69>   H                      9.079876             -9.952231            -2.183109
| 70>   H                      8.852604             -8.316169            -2.784880
| 71> *
| 72>
| 73>                          ****END OF INPUT****
 Total Charge           Charge          ....    0
 Multiplicity           Mult            ....    1
 Number of Electrons    NEL             ....   36
Dispersion correction           -0.001413072
FINAL SINGLE POINT ENERGY      -231.463222101268
Dispersion correction           -0.000227595
FINAL SINGLE POINT ENERGY      -115.728995790507

CARTESIAN COORDINATES (ANGSTROEM)
---------------------------------
  C      9.121018   -8.002332   -6.658130
  O     10.161908   -7.980103   -7.581041
  H     10.228390   -8.853579   -7.970329
  H      8.705024   -7.045005   -6.526222
  H      8.234115   -8.471532   -7.034247
  H      9.419755   -8.306082   -5.708888
  C      8.381037   -9.221024   -2.445365
  O      7.711288   -9.785594   -3.581768
  H      7.153848   -9.079811   -3.973077
  H      7.701811   -9.104353   -1.629478
  H      9.079876   -9.952231   -2.183109
  H      8.852604   -8.316169   -2.784880

 Multiplicity           Mult            ....    1
 Number of Electrons    NEL             ....   18
 Basis Dimension        Dim             ....  172

ORBITAL ENERGIES
----------------

  NO   OCC          E(Eh)            E(eV)
   0   2.0000     -19.226660      -523.1840
   1   2.0000     -10.303666      -280.3770
   2   2.0000      -1.124389       -30.5962
   3   2.0000      -0.799446       -21.7540
   4   2.0000      -0.601999       -16.3812
   5   2.0000      -0.552741       -15.0408
   6   2.0000      -0.524453       -14.2711
   7   2.0000      -0.434600       -11.8261
   8   2.0000      -0.372952       -10.1485
   9   0.0000       0.081611         2.2207
  10   0.0000       0.124302         3.3824
  11   0.0000       0.155882         4.2418
  12   0.0000       0.173321         4.7163
  13   0.0000       0.192663         5.2426

MULLIKEN ATOMIC CHARGES
-----------------------
   0 C :   -0.003219
   1 O :   -0.000103
   2 H :   -0.000057
   3 H :    0.000296
   4 H :    0.000483
   5 H :   -0.002926
   6 C :   -0.154577
   7 O :   -0.487409
   8 H :    0.311610
   9 H :    0.107407
  10 H :    0.123213
  11 H :    0.105282
Sum of atomic charges:   -0.0000000

LOEWDIN ATOMIC CHARGES
----------------------
   0 C :   -0.004029
   1 O :   -0.000031
   2 H :   -0.000008
   3 H :   -0.000065
   4 H :   -0.000411
   5 H :   -0.003077
   6 C :   -0.353520
   7 O :   -0.101567
   8 H :    0.175533
   9 H :    0.091782
  10 H :    0.100483
  11 H :    0.094910

  Mayer bond orders larger than 0.1
B(  6-C ,  7-O ) :   0.9866 B(  6-C ,  9-H ) :   0.9773 B(  6-C , 10-H ) :   0.9764
B(  6-C , 11-H ) :   0.9846 B(  7-O ,  8-H ) :   0.9009

Dispersion correction           -0.000217591
FINAL SINGLE POINT ENERGY      -115.733216653421

DIPOLE MOMENT
-------------
                                X             Y             Z
Electronic contribution:     -0.70671      -0.75169      -1.22987
Nuclear contribution   :      0.64673       1.40741       1.47417
                        -----------------------------------------
Total Dipole Moment    :     -0.05998       0.65572       0.24430
                        -----------------------------------------
Magnitude (a.u.)       :      0.70231
Magnitude (Debye)      :      1.78514

Rotational constants in cm-1:     4.296505     0.830674     0.803296
Rotational constants in MHz : 128805.970063 24902.972924 24082.216181

                             ****ORCA TERMINATED NORMALLY****
TOTAL RUN TIME: 0 days 0 hours 0 minutes 48 seconds 108 msec
