                         Program Version 4.1.2  - RELEASE  -
|  1> #Run DFT-D3 single point of the dimer
|  2> ! wB97X-D3 def2-TZVP TIGHTSCF CHELPG PMODEL PAL8
|  3>
|  4> %base "16-175_DFT_AB"
|  5>
|  6> %scf
|  7> MaxIter 1000
|  8> end
|  9>
| 10> * xyz 0 1
| 11>   C                      -9.641267            -10.587054           -4.883074
| 12>   O                      -10.046875           -9.231081            -4.820711
| 13>   H                      -9.689397            -8.879849            -3.973131
| 14>   H                      -8.741883            -10.630906           -4.172848
| 15>   H                      -10.446218           -11.238485           -4.547524
| 16>   H                      -9.391524            -10.963067           -5.903366
| 17>   C                      -8.340799            -7.463451            -1.825485
| 18>   O                      -9.547389            -8.055020            -2.254441
| 19>   H                      -10.238468           -7.410873            -1.993551
| 20>   H                      -7.498366            -7.871612            -2.381904
| 21>   H                      -8.376647            -6.319870            -1.937428
| 22>   H                      -8.097483            -7.847441            -0.828746
| 23> *
| 24>
| 25> #Run DFT-D3 single point of the molecule with dimer basis set
| 26> $new_job
| 27> %base "16-175_DFT_A"
| 28> ! wB97X-D3 def2-TZVP TIGHTSCF CHELPG PMODEL
| 29>
| 30> %scf
| 31> MaxIter 1000
| 32> end
| 33>
| 34> * xyz 0 1
| 35>   C                      -9.641267            -10.587054           -4.883074
| 36>   O                      -10.046875           -9.231081            -4.820711
| 37>   H                      -9.689397            -8.879849            -3.973131
| 38>   H                      -8.741883            -10.630906           -4.172848
| 39>   H                      -10.446218           -11.238485           -4.547524
| 40>   H                      -9.391524            -10.963067           -5.903366
| 41>   C                    : -8.340799            -7.463451            -1.825485
| 42>   O                    : -9.547389            -8.055020            -2.254441
| 43>   H                    : -10.238468           -7.410873            -1.993551
| 44>   H                    : -7.498366            -7.871612            -2.381904
| 45>   H                    : -8.376647            -6.319870            -1.937428
| 46>   H                    : -8.097483            -7.847441            -0.828746
| 47> *
| 48>
| 49> #Run DFT-D3 single point of the particle with dimer basis set
| 50> $new_job
| 51> %base "16-175_DFT_B"
| 52> ! wB97X-D3 def2-TZVP TIGHTSCF CHELPG PMODEL
| 53>
| 54> %scf
| 55> MaxIter 1000
| 56> end
| 57>
| 58> * xyz 0 1
| 59>   C                    : -9.641267            -10.587054           -4.883074
| 60>   O                    : -10.046875           -9.231081            -4.820711
| 61>   H                    : -9.689397            -8.879849            -3.973131
| 62>   H                    : -8.741883            -10.630906           -4.172848
| 63>   H                    : -10.446218           -11.238485           -4.547524
| 64>   H                    : -9.391524            -10.963067           -5.903366
| 65>   C                      -8.340799            -7.463451            -1.825485
| 66>   O                      -9.547389            -8.055020            -2.254441
| 67>   H                      -10.238468           -7.410873            -1.993551
| 68>   H                      -7.498366            -7.871612            -2.381904
| 69>   H                      -8.376647            -6.319870            -1.937428
| 70>   H                      -8.097483            -7.847441            -0.828746
| 71> *
| 72>
| 73>                          ****END OF INPUT****
 Total Charge           Charge          ....    0
 Multiplicity           Mult            ....    1
 Number of Electrons    NEL             ....   36
Dispersion correction           -0.001670276
FINAL SINGLE POINT ENERGY      -231.469071585326
Dispersion correction           -0.000240756
FINAL SINGLE POINT ENERGY      -115.729231186834

CARTESIAN COORDINATES (ANGSTROEM)
---------------------------------
  C     -9.641267  -10.587054   -4.883074
  O    -10.046875   -9.231081   -4.820711
  H     -9.689397   -8.879849   -3.973131
  H     -8.741883  -10.630906   -4.172848
  H    -10.446218  -11.238485   -4.547524
  H     -9.391524  -10.963067   -5.903366
  C     -8.340799   -7.463451   -1.825485
  O     -9.547389   -8.055020   -2.254441
  H    -10.238468   -7.410873   -1.993551
  H     -7.498366   -7.871612   -2.381904
  H     -8.376647   -6.319870   -1.937428
  H     -8.097483   -7.847441   -0.828746

 Multiplicity           Mult            ....    1
 Number of Electrons    NEL             ....   18
 Basis Dimension        Dim             ....  172

ORBITAL ENERGIES
----------------

  NO   OCC          E(Eh)            E(eV)
   0   2.0000     -19.233379      -523.3668
   1   2.0000     -10.317870      -280.7635
   2   2.0000      -1.136585       -30.9280
   3   2.0000      -0.789349       -21.4793
   4   2.0000      -0.603310       -16.4169
   5   2.0000      -0.544693       -14.8219
   6   2.0000      -0.527909       -14.3651
   7   2.0000      -0.434251       -11.8166
   8   2.0000      -0.370744       -10.0885
   9   0.0000       0.099024         2.6946
  10   0.0000       0.120402         3.2763
  11   0.0000       0.151868         4.1326
  12   0.0000       0.186063         5.0630
  13   0.0000       0.200151         5.4464

MULLIKEN ATOMIC CHARGES
-----------------------
   0 C :    0.001165
   1 O :    0.000087
   2 H :   -0.011012
   3 H :   -0.001028
   4 H :   -0.000199
   5 H :   -0.000084
   6 C :   -0.170616
   7 O :   -0.457125
   8 H :    0.315926
   9 H :    0.118634
  10 H :    0.104356
  11 H :    0.099895
Sum of atomic charges:    0.0000000

LOEWDIN ATOMIC CHARGES
----------------------
   0 C :   -0.002102
   1 O :   -0.006207
   2 H :   -0.045879
   3 H :   -0.000498
   4 H :   -0.000058
   5 H :   -0.000029
   6 C :   -0.397965
   7 O :   -0.039545
   8 H :    0.183694
   9 H :    0.104750
  10 H :    0.107162
  11 H :    0.096677

  Mayer bond orders larger than 0.1
B(  6-C ,  7-O ) :   0.9993 B(  6-C ,  9-H ) :   0.9789 B(  6-C , 10-H ) :   0.9772
B(  6-C , 11-H ) :   0.9724 B(  7-O ,  8-H ) :   0.8965

Dispersion correction           -0.000240680
FINAL SINGLE POINT ENERGY      -115.730857195960

DIPOLE MOMENT
-------------
                                X             Y             Z
Electronic contribution:     -1.50643      -0.83128      -0.61405
Nuclear contribution   :      1.55707       1.43524       0.93199
                        -----------------------------------------
Total Dipole Moment    :      0.05063       0.60396       0.31794
                        -----------------------------------------
Magnitude (a.u.)       :      0.68441
Magnitude (Debye)      :      1.73963

Rotational constants in cm-1:     4.093755     0.842286     0.800974
Rotational constants in MHz : 122727.673896 25251.100482 24012.598190

                             ****ORCA TERMINATED NORMALLY****
TOTAL RUN TIME: 0 days 0 hours 1 minutes 9 seconds 615 msec
