                         Program Version 4.1.2  - RELEASE  -
|  1> #Run DFT-D3 single point of the dimer
|  2> ! wB97X-D3 def2-TZVP TIGHTSCF CHELPG PMODEL PAL8
|  3>
|  4> %base "13-38_DFT_AB"
|  5>
|  6> %scf
|  7> MaxIter 1000
|  8> end
|  9>
| 10> * xyz 0 1
| 11>   C                      2.238468             -1.442492            -1.376394
| 12>   O                      1.121689             -1.733540            -0.514272
| 13>   H                      1.431541             -2.499082            -0.058163
| 14>   H                      3.190386             -1.760322            -0.835746
| 15>   H                      2.025457             -1.974779            -2.354060
| 16>   H                      2.293692             -0.377440            -1.575006
| 17>   C                      5.160119             -4.518508            -1.480591
| 18>   O                      6.307349             -3.679778            -1.437952
| 19>   H                      6.918061             -4.117089            -2.025001
| 20>   H                      4.300942             -3.910907            -1.216338
| 21>   H                      4.971459             -5.059759            -2.422785
| 22>   H                      5.262418             -5.328838            -0.725788
| 23> *
| 24>
| 25> #Run DFT-D3 single point of the molecule with dimer basis set
| 26> $new_job
| 27> %base "13-38_DFT_A"
| 28> ! wB97X-D3 def2-TZVP TIGHTSCF CHELPG PMODEL
| 29>
| 30> %scf
| 31> MaxIter 1000
| 32> end
| 33>
| 34> * xyz 0 1
| 35>   C                      2.238468             -1.442492            -1.376394
| 36>   O                      1.121689             -1.733540            -0.514272
| 37>   H                      1.431541             -2.499082            -0.058163
| 38>   H                      3.190386             -1.760322            -0.835746
| 39>   H                      2.025457             -1.974779            -2.354060
| 40>   H                      2.293692             -0.377440            -1.575006
| 41>   C                    : 5.160119             -4.518508            -1.480591
| 42>   O                    : 6.307349             -3.679778            -1.437952
| 43>   H                    : 6.918061             -4.117089            -2.025001
| 44>   H                    : 4.300942             -3.910907            -1.216338
| 45>   H                    : 4.971459             -5.059759            -2.422785
| 46>   H                    : 5.262418             -5.328838            -0.725788
| 47> *
| 48>
| 49> #Run DFT-D3 single point of the particle with dimer basis set
| 50> $new_job
| 51> %base "13-38_DFT_B"
| 52> ! wB97X-D3 def2-TZVP TIGHTSCF CHELPG PMODEL
| 53>
| 54> %scf
| 55> MaxIter 1000
| 56> end
| 57>
| 58> * xyz 0 1
| 59>   C                    : 2.238468             -1.442492            -1.376394
| 60>   O                    : 1.121689             -1.733540            -0.514272
| 61>   H                    : 1.431541             -2.499082            -0.058163
| 62>   H                    : 3.190386             -1.760322            -0.835746
| 63>   H                    : 2.025457             -1.974779            -2.354060
| 64>   H                    : 2.293692             -0.377440            -1.575006
| 65>   C                      5.160119             -4.518508            -1.480591
| 66>   O                      6.307349             -3.679778            -1.437952
| 67>   H                      6.918061             -4.117089            -2.025001
| 68>   H                      4.300942             -3.910907            -1.216338
| 69>   H                      4.971459             -5.059759            -2.422785
| 70>   H                      5.262418             -5.328838            -0.725788
| 71> *
| 72>
| 73>                          ****END OF INPUT****
 Total Charge           Charge          ....    0
 Multiplicity           Mult            ....    1
 Number of Electrons    NEL             ....   36
Dispersion correction           -0.001265396
FINAL SINGLE POINT ENERGY      -231.465849255557
Dispersion correction           -0.000233270
FINAL SINGLE POINT ENERGY      -115.730619699362

CARTESIAN COORDINATES (ANGSTROEM)
---------------------------------
  C      2.238468   -1.442492   -1.376394
  O      1.121689   -1.733540   -0.514272
  H      1.431541   -2.499082   -0.058163
  H      3.190386   -1.760322   -0.835746
  H      2.025457   -1.974779   -2.354060
  H      2.293692   -0.377440   -1.575006
  C      5.160119   -4.518508   -1.480591
  O      6.307349   -3.679778   -1.437952
  H      6.918061   -4.117089   -2.025001
  H      4.300942   -3.910907   -1.216338
  H      4.971459   -5.059759   -2.422785
  H      5.262418   -5.328838   -0.725788

 Multiplicity           Mult            ....    1
 Number of Electrons    NEL             ....   18
 Basis Dimension        Dim             ....  172

ORBITAL ENERGIES
----------------

  NO   OCC          E(Eh)            E(eV)
   0   2.0000     -19.232424      -523.3409
   1   2.0000     -10.315283      -280.6931
   2   2.0000      -1.139317       -31.0024
   3   2.0000      -0.793372       -21.5887
   4   2.0000      -0.613752       -16.7011
   5   2.0000      -0.535248       -14.5648
   6   2.0000      -0.522400       -14.2152
   7   2.0000      -0.446734       -12.1563
   8   2.0000      -0.372512       -10.1366
   9   0.0000       0.088723         2.4143
  10   0.0000       0.117188         3.1888
  11   0.0000       0.155124         4.2211
  12   0.0000       0.169394         4.6094
  13   0.0000       0.188384         5.1262

MULLIKEN ATOMIC CHARGES
-----------------------
   0 C :   -0.000948
   1 O :    0.000033
   2 H :   -0.000137
   3 H :    0.002819
   4 H :   -0.000543
   5 H :    0.000058
   6 C :   -0.179056
   7 O :   -0.461181
   8 H :    0.311637
   9 H :    0.120058
  10 H :    0.107457
  11 H :    0.099804
Sum of atomic charges:    0.0000000

LOEWDIN ATOMIC CHARGES
----------------------
   0 C :   -0.002697
   1 O :   -0.000008
   2 H :   -0.000156
   3 H :   -0.002224
   4 H :   -0.000282
   5 H :   -0.000018
   6 C :   -0.385631
   7 O :   -0.075759
   8 H :    0.165893
   9 H :    0.106677
  10 H :    0.097028
  11 H :    0.097176

  Mayer bond orders larger than 0.1
B(  6-C ,  7-O ) :   1.0131 B(  6-C ,  9-H ) :   0.9759 B(  6-C , 10-H ) :   0.9741
B(  6-C , 11-H ) :   0.9793 B(  7-O ,  8-H ) :   0.9052

Dispersion correction           -0.000241773
FINAL SINGLE POINT ENERGY      -115.734549700757

DIPOLE MOMENT
-------------
                                X             Y             Z
Electronic contribution:      1.41409       1.25117       0.06554
Nuclear contribution   :     -1.47527      -1.84616      -0.46281
                        -----------------------------------------
Total Dipole Moment    :     -0.06117      -0.59499      -0.39727
                        -----------------------------------------
Magnitude (a.u.)       :      0.71804
Magnitude (Debye)      :      1.82511

Rotational constants in cm-1:     4.248242     0.828751     0.794189
Rotational constants in MHz : 127359.079017 24845.333912 23809.194847

                             ****ORCA TERMINATED NORMALLY****
TOTAL RUN TIME: 0 days 0 hours 1 minutes 1 seconds 61 msec
