                         Program Version 4.1.2  - RELEASE  -
|  1> #Run DFT-D3 single point of the dimer
|  2> ! wB97X-D3 def2-TZVP TIGHTSCF CHELPG PMODEL PAL8
|  3>
|  4> %base "8-1_DFT_AB"
|  5>
|  6> %scf
|  7> MaxIter 1000
|  8> end
|  9>
| 10> * xyz 0 1
| 11>   C                      3.233414             -3.571402            3.480505
| 12>   O                      2.255676             -2.570167            3.219103
| 13>   H                      1.566001             -2.787145            3.844910
| 14>   H                      2.766447             -4.558397            3.518261
| 15>   H                      4.083400             -3.498807            2.869667
| 16>   H                      3.649298             -3.340378            4.517966
| 17>   C                      3.247449             0.489047             6.955197
| 18>   O                      3.339960             1.502602             5.982111
| 19>   H                      2.459960             1.640455             5.585835
| 20>   H                      2.534463             0.868375             7.717436
| 21>   H                      2.934831             -0.454493            6.529917
| 22>   H                      4.259433             0.461948             7.314150
| 23> *
| 24>
| 25> #Run DFT-D3 single point of the molecule with dimer basis set
| 26> $new_job
| 27> %base "8-1_DFT_A"
| 28> ! wB97X-D3 def2-TZVP TIGHTSCF CHELPG PMODEL
| 29>
| 30> %scf
| 31> MaxIter 1000
| 32> end
| 33>
| 34> * xyz 0 1
| 35>   C                      3.233414             -3.571402            3.480505
| 36>   O                      2.255676             -2.570167            3.219103
| 37>   H                      1.566001             -2.787145            3.844910
| 38>   H                      2.766447             -4.558397            3.518261
| 39>   H                      4.083400             -3.498807            2.869667
| 40>   H                      3.649298             -3.340378            4.517966
| 41>   C                    : 3.247449             0.489047             6.955197
| 42>   O                    : 3.339960             1.502602             5.982111
| 43>   H                    : 2.459960             1.640455             5.585835
| 44>   H                    : 2.534463             0.868375             7.717436
| 45>   H                    : 2.934831             -0.454493            6.529917
| 46>   H                    : 4.259433             0.461948             7.314150
| 47> *
| 48>
| 49> #Run DFT-D3 single point of the particle with dimer basis set
| 50> $new_job
| 51> %base "8-1_DFT_B"
| 52> ! wB97X-D3 def2-TZVP TIGHTSCF CHELPG PMODEL
| 53>
| 54> %scf
| 55> MaxIter 1000
| 56> end
| 57>
| 58> * xyz 0 1
| 59>   C                    : 3.233414             -3.571402            3.480505
| 60>   O                    : 2.255676             -2.570167            3.219103
| 61>   H                    : 1.566001             -2.787145            3.844910
| 62>   H                    : 2.766447             -4.558397            3.518261
| 63>   H                    : 4.083400             -3.498807            2.869667
| 64>   H                    : 3.649298             -3.340378            4.517966
| 65>   C                      3.247449             0.489047             6.955197
| 66>   O                      3.339960             1.502602             5.982111
| 67>   H                      2.459960             1.640455             5.585835
| 68>   H                      2.534463             0.868375             7.717436
| 69>   H                      2.934831             -0.454493            6.529917
| 70>   H                      4.259433             0.461948             7.314150
| 71> *
| 72>
| 73>                          ****END OF INPUT****
 Total Charge           Charge          ....    0
 Multiplicity           Mult            ....    1
 Number of Electrons    NEL             ....   36
Dispersion correction           -0.000778000
FINAL SINGLE POINT ENERGY      -231.464359175243
Dispersion correction           -0.000215901
FINAL SINGLE POINT ENERGY      -115.730709124179

CARTESIAN COORDINATES (ANGSTROEM)
---------------------------------
  C      3.233414   -3.571402    3.480505
  O      2.255676   -2.570167    3.219103
  H      1.566001   -2.787145    3.844910
  H      2.766447   -4.558397    3.518261
  H      4.083400   -3.498807    2.869667
  H      3.649298   -3.340378    4.517966
  C      3.247449    0.489047    6.955197
  O      3.339960    1.502602    5.982111
  H      2.459960    1.640455    5.585835
  H      2.534463    0.868375    7.717436
  H      2.934831   -0.454493    6.529917
  H      4.259433    0.461948    7.314150

 Multiplicity           Mult            ....    1
 Number of Electrons    NEL             ....   18
 Basis Dimension        Dim             ....  172

ORBITAL ENERGIES
----------------

  NO   OCC          E(Eh)            E(eV)
   0   2.0000     -19.225183      -523.1438
   1   2.0000     -10.309030      -280.5230
   2   2.0000      -1.132967       -30.8296
   3   2.0000      -0.792142       -21.5553
   4   2.0000      -0.608865       -16.5681
   5   2.0000      -0.547375       -14.8948
   6   2.0000      -0.522444       -14.2164
   7   2.0000      -0.432446       -11.7675
   8   2.0000      -0.369756       -10.0616
   9   0.0000       0.081975         2.2306
  10   0.0000       0.114841         3.1250
  11   0.0000       0.156527         4.2593
  12   0.0000       0.165374         4.5001
  13   0.0000       0.188406         5.1268

MULLIKEN ATOMIC CHARGES
-----------------------
   0 C :    0.000172
   1 O :   -0.000015
   2 H :   -0.000038
   3 H :    0.000003
   4 H :   -0.000021
   5 H :   -0.000163
   6 C :   -0.149344
   7 O :   -0.478379
   8 H :    0.310142
   9 H :    0.099230
  10 H :    0.098558
  11 H :    0.119856
Sum of atomic charges:   -0.0000000

LOEWDIN ATOMIC CHARGES
----------------------
   0 C :   -0.000083
   1 O :   -0.000022
   2 H :   -0.000067
   3 H :   -0.000000
   4 H :   -0.000001
   5 H :   -0.000185
   6 C :   -0.383527
   7 O :   -0.086213
   8 H :    0.172466
   9 H :    0.099240
  10 H :    0.089940
  11 H :    0.108454

  Mayer bond orders larger than 0.1
B(  6-C ,  7-O ) :   0.9917 B(  6-C ,  9-H ) :   0.9836 B(  6-C , 10-H ) :   0.9705
B(  6-C , 11-H ) :   0.9755 B(  7-O ,  8-H ) :   0.8999

Dispersion correction           -0.000215506
FINAL SINGLE POINT ENERGY      -115.733461206897

DIPOLE MOMENT
-------------
                                X             Y             Z
Electronic contribution:      0.25349       1.12280      -1.13551
Nuclear contribution   :     -0.82929      -1.43258       1.26414
                        -----------------------------------------
Total Dipole Moment    :     -0.57581      -0.30978       0.12863
                        -----------------------------------------
Magnitude (a.u.)       :      0.66638
Magnitude (Debye)      :      1.69381

Rotational constants in cm-1:     4.135834     0.855310     0.824356
Rotational constants in MHz : 123989.180381 25641.543982 24713.560258

                             ****ORCA TERMINATED NORMALLY****
TOTAL RUN TIME: 0 days 0 hours 0 minutes 40 seconds 779 msec
