                         Program Version 4.1.2  - RELEASE  -
|  1> #Run DFT-D3 single point of the dimer
|  2> ! wB97X-D3 def2-TZVP TIGHTSCF CHELPG PMODEL PAL8
|  3>
|  4> %base "6-41_DFT_AB"
|  5>
|  6> %scf
|  7> MaxIter 1000
|  8> end
|  9>
| 10> * xyz 0 1
| 11>   C                      -8.806139            -3.804200            -0.537785
| 12>   O                      -9.024071            -2.496550            -1.017201
| 13>   H                      -9.353899            -2.559543            -1.944128
| 14>   H                      -8.922862            -3.712289            0.568426
| 15>   H                      -9.480058            -4.616308            -0.979368
| 16>   H                      -7.833328            -4.174835            -0.732438
| 17>   C                      -3.724706            -3.539969            -0.684343
| 18>   O                      -4.811907            -3.867002            -1.552285
| 19>   H                      -5.140295            -3.032049            -1.928228
| 20>   H                      -3.151461            -4.402956            -0.364138
| 21>   H                      -3.067801            -2.758398            -1.100880
| 22>   H                      -4.061478            -3.141803            0.297262
| 23> *
| 24>
| 25> #Run DFT-D3 single point of the molecule with dimer basis set
| 26> $new_job
| 27> %base "6-41_DFT_A"
| 28> ! wB97X-D3 def2-TZVP TIGHTSCF CHELPG PMODEL
| 29>
| 30> %scf
| 31> MaxIter 1000
| 32> end
| 33>
| 34> * xyz 0 1
| 35>   C                      -8.806139            -3.804200            -0.537785
| 36>   O                      -9.024071            -2.496550            -1.017201
| 37>   H                      -9.353899            -2.559543            -1.944128
| 38>   H                      -8.922862            -3.712289            0.568426
| 39>   H                      -9.480058            -4.616308            -0.979368
| 40>   H                      -7.833328            -4.174835            -0.732438
| 41>   C                    : -3.724706            -3.539969            -0.684343
| 42>   O                    : -4.811907            -3.867002            -1.552285
| 43>   H                    : -5.140295            -3.032049            -1.928228
| 44>   H                    : -3.151461            -4.402956            -0.364138
| 45>   H                    : -3.067801            -2.758398            -1.100880
| 46>   H                    : -4.061478            -3.141803            0.297262
| 47> *
| 48>
| 49> #Run DFT-D3 single point of the particle with dimer basis set
| 50> $new_job
| 51> %base "6-41_DFT_B"
| 52> ! wB97X-D3 def2-TZVP TIGHTSCF CHELPG PMODEL
| 53>
| 54> %scf
| 55> MaxIter 1000
| 56> end
| 57>
| 58> * xyz 0 1
| 59>   C                    : -8.806139            -3.804200            -0.537785
| 60>   O                    : -9.024071            -2.496550            -1.017201
| 61>   H                    : -9.353899            -2.559543            -1.944128
| 62>   H                    : -8.922862            -3.712289            0.568426
| 63>   H                    : -9.480058            -4.616308            -0.979368
| 64>   H                    : -7.833328            -4.174835            -0.732438
| 65>   C                      -3.724706            -3.539969            -0.684343
| 66>   O                      -4.811907            -3.867002            -1.552285
| 67>   H                      -5.140295            -3.032049            -1.928228
| 68>   H                      -3.151461            -4.402956            -0.364138
| 69>   H                      -3.067801            -2.758398            -1.100880
| 70>   H                      -4.061478            -3.141803            0.297262
| 71> *
| 72>
| 73>                          ****END OF INPUT****
 Total Charge           Charge          ....    0
 Multiplicity           Mult            ....    1
 Number of Electrons    NEL             ....   36
Dispersion correction           -0.001122901
FINAL SINGLE POINT ENERGY      -231.467546709347
Dispersion correction           -0.000258192
FINAL SINGLE POINT ENERGY      -115.731685519994

CARTESIAN COORDINATES (ANGSTROEM)
---------------------------------
  C     -8.806139   -3.804200   -0.537785
  O     -9.024071   -2.496550   -1.017201
  H     -9.353899   -2.559543   -1.944128
  H     -8.922862   -3.712289    0.568426
  H     -9.480058   -4.616308   -0.979368
  H     -7.833328   -4.174835   -0.732438
  C     -3.724706   -3.539969   -0.684343
  O     -4.811907   -3.867002   -1.552285
  H     -5.140295   -3.032049   -1.928228
  H     -3.151461   -4.402956   -0.364138
  H     -3.067801   -2.758398   -1.100880
  H     -4.061478   -3.141803    0.297262

 Multiplicity           Mult            ....    1
 Number of Electrons    NEL             ....   18
 Basis Dimension        Dim             ....  172

ORBITAL ENERGIES
----------------

  NO   OCC          E(Eh)            E(eV)
   0   2.0000     -19.235244      -523.4176
   1   2.0000     -10.317043      -280.7410
   2   2.0000      -1.131397       -30.7869
   3   2.0000      -0.795920       -21.6581
   4   2.0000      -0.608849       -16.5676
   5   2.0000      -0.538062       -14.6414
   6   2.0000      -0.524691       -14.2776
   7   2.0000      -0.438655       -11.9364
   8   2.0000      -0.372817       -10.1449
   9   0.0000       0.088130         2.3982
  10   0.0000       0.119529         3.2526
  11   0.0000       0.149186         4.0596
  12   0.0000       0.168697         4.5905
  13   0.0000       0.194328         5.2879

MULLIKEN ATOMIC CHARGES
-----------------------
   0 C :    0.001227
   1 O :    0.000169
   2 H :    0.000017
   3 H :    0.000110
   4 H :   -0.000162
   5 H :   -0.006978
   6 C :   -0.174782
   7 O :   -0.469765
   8 H :    0.319636
   9 H :    0.125215
  10 H :    0.109022
  11 H :    0.096290
Sum of atomic charges:   -0.0000000

LOEWDIN ATOMIC CHARGES
----------------------
   0 C :   -0.001402
   1 O :   -0.000029
   2 H :   -0.000011
   3 H :   -0.000007
   4 H :   -0.000013
   5 H :   -0.004241
   6 C :   -0.383361
   7 O :   -0.088188
   8 H :    0.177807
   9 H :    0.106226
  10 H :    0.097435
  11 H :    0.095785

  Mayer bond orders larger than 0.1
B(  6-C ,  7-O ) :   1.0005 B(  6-C ,  9-H ) :   0.9739 B(  6-C , 10-H ) :   0.9764
B(  6-C , 11-H ) :   0.9736 B(  7-O ,  8-H ) :   0.8946

Dispersion correction           -0.000259091
FINAL SINGLE POINT ENERGY      -115.734127184050

DIPOLE MOMENT
-------------
                                X             Y             Z
Electronic contribution:     -1.35318      -0.63690      -1.21324
Nuclear contribution   :      1.60109       1.28631       1.32596
                        -----------------------------------------
Total Dipole Moment    :      0.24791       0.64941       0.11272
                        -----------------------------------------
Magnitude (a.u.)       :      0.70420
Magnitude (Debye)      :      1.78994

Rotational constants in cm-1:     4.336251     0.810221     0.776064
Rotational constants in MHz : 129997.531286 24289.812512 23265.820702

                             ****ORCA TERMINATED NORMALLY****
TOTAL RUN TIME: 0 days 0 hours 0 minutes 58 seconds 367 msec
