                         Program Version 4.1.2  - RELEASE  -
|  1> #Run DFT-D3 single point of the dimer
|  2> ! wB97X-D3 def2-TZVP TIGHTSCF CHELPG PMODEL PAL8
|  3>
|  4> %base "14-99_DFT_AB"
|  5>
|  6> %scf
|  7> MaxIter 1000
|  8> end
|  9>
| 10> * xyz 0 1
| 11>   C                      -8.023118            5.970073             -7.301579
| 12>   O                      -7.208899            5.748031             -6.199433
| 13>   H                      -7.582233            5.100643             -5.540227
| 14>   H                      -8.491772            6.984259             -7.204203
| 15>   H                      -7.494694            5.832346             -8.256467
| 16>   H                      -8.841849            5.215604             -7.301558
| 17>   C                      -10.706522           6.481199             -10.450285
| 18>   O                      -10.367520           5.533214             -9.410338
| 19>   H                      -10.340371           4.603225             -9.772060
| 20>   H                      -10.510110           7.522585             -10.104017
| 21>   H                      -10.092340           6.379709             -11.337776
| 22>   H                      -11.765790           6.426384             -10.878272
| 23> *
| 24>
| 25> #Run DFT-D3 single point of the molecule with dimer basis set
| 26> $new_job
| 27> %base "14-99_DFT_A"
| 28> ! wB97X-D3 def2-TZVP TIGHTSCF CHELPG PMODEL
| 29>
| 30> %scf
| 31> MaxIter 1000
| 32> end
| 33>
| 34> * xyz 0 1
| 35>   C                      -8.023118            5.970073             -7.301579
| 36>   O                      -7.208899            5.748031             -6.199433
| 37>   H                      -7.582233            5.100643             -5.540227
| 38>   H                      -8.491772            6.984259             -7.204203
| 39>   H                      -7.494694            5.832346             -8.256467
| 40>   H                      -8.841849            5.215604             -7.301558
| 41>   C                    : -10.706522           6.481199             -10.450285
| 42>   O                    : -10.367520           5.533214             -9.410338
| 43>   H                    : -10.340371           4.603225             -9.772060
| 44>   H                    : -10.510110           7.522585             -10.104017
| 45>   H                    : -10.092340           6.379709             -11.337776
| 46>   H                    : -11.765790           6.426384             -10.878272
| 47> *
| 48>
| 49> #Run DFT-D3 single point of the particle with dimer basis set
| 50> $new_job
| 51> %base "14-99_DFT_B"
| 52> ! wB97X-D3 def2-TZVP TIGHTSCF CHELPG PMODEL
| 53>
| 54> %scf
| 55> MaxIter 1000
| 56> end
| 57>
| 58> * xyz 0 1
| 59>   C                    : -8.023118            5.970073             -7.301579
| 60>   O                    : -7.208899            5.748031             -6.199433
| 61>   H                    : -7.582233            5.100643             -5.540227
| 62>   H                    : -8.491772            6.984259             -7.204203
| 63>   H                    : -7.494694            5.832346             -8.256467
| 64>   H                    : -8.841849            5.215604             -7.301558
| 65>   C                      -10.706522           6.481199             -10.450285
| 66>   O                      -10.367520           5.533214             -9.410338
| 67>   H                      -10.340371           4.603225             -9.772060
| 68>   H                      -10.510110           7.522585             -10.104017
| 69>   H                      -10.092340           6.379709             -11.337776
| 70>   H                      -11.765790           6.426384             -10.878272
| 71> *
| 72>
| 73>                          ****END OF INPUT****
 Total Charge           Charge          ....    0
 Multiplicity           Mult            ....    1
 Number of Electrons    NEL             ....   36
Dispersion correction           -0.001724043
FINAL SINGLE POINT ENERGY      -231.463483108045
Dispersion correction           -0.000249417
FINAL SINGLE POINT ENERGY      -115.731304948894

CARTESIAN COORDINATES (ANGSTROEM)
---------------------------------
  C     -8.023118    5.970073   -7.301579
  O     -7.208899    5.748031   -6.199433
  H     -7.582233    5.100643   -5.540227
  H     -8.491772    6.984259   -7.204203
  H     -7.494694    5.832346   -8.256467
  H     -8.841849    5.215604   -7.301558
  C    -10.706522    6.481199  -10.450285
  O    -10.367520    5.533214   -9.410338
  H    -10.340371    4.603225   -9.772060
  H    -10.510110    7.522585  -10.104017
  H    -10.092340    6.379709  -11.337776
  H    -11.765790    6.426384  -10.878272

 Multiplicity           Mult            ....    1
 Number of Electrons    NEL             ....   18
 Basis Dimension        Dim             ....  172

ORBITAL ENERGIES
----------------

  NO   OCC          E(Eh)            E(eV)
   0   2.0000     -19.238229      -523.4988
   1   2.0000     -10.323040      -280.9042
   2   2.0000      -1.119997       -30.4767
   3   2.0000      -0.793022       -21.5792
   4   2.0000      -0.605860       -16.4863
   5   2.0000      -0.526794       -14.3348
   6   2.0000      -0.520621       -14.1668
   7   2.0000      -0.434546       -11.8246
   8   2.0000      -0.375077       -10.2064
   9   0.0000       0.094273         2.5653
  10   0.0000       0.121669         3.3108
  11   0.0000       0.141962         3.8630
  12   0.0000       0.175722         4.7816
  13   0.0000       0.195960         5.3324

MULLIKEN ATOMIC CHARGES
-----------------------
   0 C :    0.011885
   1 O :   -0.000346
   2 H :   -0.000053
   3 H :   -0.003451
   4 H :   -0.006465
   5 H :   -0.008257
   6 C :   -0.175946
   7 O :   -0.476198
   8 H :    0.318956
   9 H :    0.127056
  10 H :    0.110209
  11 H :    0.102613
Sum of atomic charges:    0.0000000

LOEWDIN ATOMIC CHARGES
----------------------
   0 C :   -0.014641
   1 O :   -0.000064
   2 H :   -0.000015
   3 H :   -0.001015
   4 H :   -0.002701
   5 H :   -0.007938
   6 C :   -0.378467
   7 O :   -0.092713
   8 H :    0.188804
   9 H :    0.113787
  10 H :    0.091630
  11 H :    0.103335

  Mayer bond orders larger than 0.1
B(  6-C ,  7-O ) :   0.9970 B(  6-C ,  9-H ) :   0.9743 B(  6-C , 10-H ) :   0.9732
B(  6-C , 11-H ) :   0.9638 B(  7-O ,  8-H ) :   0.8891

Dispersion correction           -0.000295584
FINAL SINGLE POINT ENERGY      -115.730855891722

DIPOLE MOMENT
-------------
                                X             Y             Z
Electronic contribution:      0.43997      -1.14833       1.50417
Nuclear contribution   :     -0.53641       0.95546      -2.17943
                        -----------------------------------------
Total Dipole Moment    :     -0.09644      -0.19287      -0.67527
                        -----------------------------------------
Magnitude (a.u.)       :      0.70886
Magnitude (Debye)      :      1.80179

Rotational constants in cm-1:     4.268836     0.781760     0.751303
Rotational constants in MHz : 127976.496695 23436.563352 22523.492968

                             ****ORCA TERMINATED NORMALLY****
TOTAL RUN TIME: 0 days 0 hours 1 minutes 11 seconds 192 msec
