                         Program Version 4.1.2  - RELEASE  -
|  1> #Run DFT-D3 single point of the dimer
|  2> ! wB97X-D3 def2-TZVP TIGHTSCF CHELPG PMODEL PAL8
|  3>
|  4> %base "21-35_DFT_AB"
|  5>
|  6> %scf
|  7> MaxIter 1000
|  8> end
|  9>
| 10> * xyz 0 1
| 11>   C                      2.453454             1.166860             -5.874115
| 12>   O                      3.686145             1.240109             -5.184784
| 13>   H                      3.920853             2.166736             -5.242162
| 14>   H                      1.624176             1.779049             -5.362332
| 15>   H                      2.542419             1.779453             -6.767790
| 16>   H                      2.112095             0.179773             -6.170195
| 17>   C                      -0.351555            0.383032             -8.402694
| 18>   O                      -0.314816            -0.859094            -7.686971
| 19>   H                      -0.003501            -0.643212            -6.725803
| 20>   H                      -0.755686            0.132344             -9.394718
| 21>   H                      -0.953286            1.168169             -8.019851
| 22>   H                      0.685888             0.764431             -8.560317
| 23> *
| 24>
| 25> #Run DFT-D3 single point of the molecule with dimer basis set
| 26> $new_job
| 27> %base "21-35_DFT_A"
| 28> ! wB97X-D3 def2-TZVP TIGHTSCF CHELPG PMODEL
| 29>
| 30> %scf
| 31> MaxIter 1000
| 32> end
| 33>
| 34> * xyz 0 1
| 35>   C                      2.453454             1.166860             -5.874115
| 36>   O                      3.686145             1.240109             -5.184784
| 37>   H                      3.920853             2.166736             -5.242162
| 38>   H                      1.624176             1.779049             -5.362332
| 39>   H                      2.542419             1.779453             -6.767790
| 40>   H                      2.112095             0.179773             -6.170195
| 41>   C                    : -0.351555            0.383032             -8.402694
| 42>   O                    : -0.314816            -0.859094            -7.686971
| 43>   H                    : -0.003501            -0.643212            -6.725803
| 44>   H                    : -0.755686            0.132344             -9.394718
| 45>   H                    : -0.953286            1.168169             -8.019851
| 46>   H                    : 0.685888             0.764431             -8.560317
| 47> *
| 48>
| 49> #Run DFT-D3 single point of the particle with dimer basis set
| 50> $new_job
| 51> %base "21-35_DFT_B"
| 52> ! wB97X-D3 def2-TZVP TIGHTSCF CHELPG PMODEL
| 53>
| 54> %scf
| 55> MaxIter 1000
| 56> end
| 57>
| 58> * xyz 0 1
| 59>   C                    : 2.453454             1.166860             -5.874115
| 60>   O                    : 3.686145             1.240109             -5.184784
| 61>   H                    : 3.920853             2.166736             -5.242162
| 62>   H                    : 1.624176             1.779049             -5.362332
| 63>   H                    : 2.542419             1.779453             -6.767790
| 64>   H                    : 2.112095             0.179773             -6.170195
| 65>   C                      -0.351555            0.383032             -8.402694
| 66>   O                      -0.314816            -0.859094            -7.686971
| 67>   H                      -0.003501            -0.643212            -6.725803
| 68>   H                      -0.755686            0.132344             -9.394718
| 69>   H                      -0.953286            1.168169             -8.019851
| 70>   H                      0.685888             0.764431             -8.560317
| 71> *
| 72>
| 73>                          ****END OF INPUT****
 Total Charge           Charge          ....    0
 Multiplicity           Mult            ....    1
 Number of Electrons    NEL             ....   36
Dispersion correction           -0.001785556
FINAL SINGLE POINT ENERGY      -231.459649381009
Dispersion correction           -0.000230652
FINAL SINGLE POINT ENERGY      -115.728384405582

CARTESIAN COORDINATES (ANGSTROEM)
---------------------------------
  C      2.453454    1.166860   -5.874115
  O      3.686145    1.240109   -5.184784
  H      3.920853    2.166736   -5.242162
  H      1.624176    1.779049   -5.362332
  H      2.542419    1.779453   -6.767790
  H      2.112095    0.179773   -6.170195
  C     -0.351555    0.383032   -8.402694
  O     -0.314816   -0.859094   -7.686971
  H     -0.003501   -0.643212   -6.725803
  H     -0.755686    0.132344   -9.394718
  H     -0.953286    1.168169   -8.019851
  H      0.685888    0.764431   -8.560317

 Multiplicity           Mult            ....    1
 Number of Electrons    NEL             ....   18
 Basis Dimension        Dim             ....  172

ORBITAL ENERGIES
----------------

  NO   OCC          E(Eh)            E(eV)
   0   2.0000     -19.238986      -523.5194
   1   2.0000     -10.313119      -280.6342
   2   2.0000      -1.119003       -30.4496
   3   2.0000      -0.791523       -21.5384
   4   2.0000      -0.601657       -16.3719
   5   2.0000      -0.539350       -14.6765
   6   2.0000      -0.517073       -14.0703
   7   2.0000      -0.435689       -11.8557
   8   2.0000      -0.374735       -10.1971
   9   0.0000       0.070318         1.9135
  10   0.0000       0.121483         3.3057
  11   0.0000       0.146936         3.9983
  12   0.0000       0.175799         4.7837
  13   0.0000       0.189029         5.1437

MULLIKEN ATOMIC CHARGES
-----------------------
   0 C :    0.002574
   1 O :    0.000002
   2 H :    0.000008
   3 H :   -0.000149
   4 H :   -0.001108
   5 H :   -0.006836
   6 C :   -0.174736
   7 O :   -0.473037
   8 H :    0.315517
   9 H :    0.120693
  10 H :    0.114990
  11 H :    0.102082
Sum of atomic charges:    0.0000000

LOEWDIN ATOMIC CHARGES
----------------------
   0 C :   -0.004783
   1 O :   -0.000026
   2 H :   -0.000009
   3 H :   -0.000189
   4 H :   -0.001584
   5 H :   -0.004822
   6 C :   -0.379273
   7 O :   -0.114256
   8 H :    0.205755
   9 H :    0.111548
  10 H :    0.087336
  11 H :    0.100302

  Mayer bond orders larger than 0.1
B(  6-C ,  7-O ) :   1.0042 B(  6-C ,  9-H ) :   0.9762 B(  6-C , 10-H ) :   0.9675
B(  6-C , 11-H ) :   0.9771 B(  7-O ,  8-H ) :   0.8925

Dispersion correction           -0.000262035
FINAL SINGLE POINT ENERGY      -115.730677041505

DIPOLE MOMENT
-------------
                                X             Y             Z
Electronic contribution:     -0.09451      -1.60410       0.86995
Nuclear contribution   :      0.24260       2.22778      -0.58985
                        -----------------------------------------
Total Dipole Moment    :      0.14809       0.62368       0.28010
                        -----------------------------------------
Magnitude (a.u.)       :      0.69955
Magnitude (Debye)      :      1.77811

Rotational constants in cm-1:     4.191029     0.809300     0.777770
Rotational constants in MHz : 125643.884085 24262.205437 23316.971809

                             ****ORCA TERMINATED NORMALLY****
TOTAL RUN TIME: 0 days 0 hours 0 minutes 58 seconds 683 msec
