                         Program Version 4.1.2  - RELEASE  -
|  1> #Run DFT-D3 single point of the dimer
|  2> ! wB97X-D3 def2-TZVP TIGHTSCF CHELPG PMODEL PAL8
|  3>
|  4> %base "22-73_DFT_AB"
|  5>
|  6> %scf
|  7> MaxIter 1000
|  8> end
|  9>
| 10> * xyz 0 1
| 11>   C                      -3.152113            -1.685180            5.511687
| 12>   O                      -3.578452            -2.644021            4.578806
| 13>   H                      -2.831220            -3.224825            4.420491
| 14>   H                      -2.231712            -1.127083            5.128433
| 15>   H                      -3.887088            -1.022022            5.889255
| 16>   H                      -2.718246            -2.180419            6.352590
| 17>   C                      -0.190552            -1.346349            7.638156
| 18>   O                      -0.224249            -1.612135            6.254584
| 19>   H                      -0.894124            -2.259526            6.100386
| 20>   H                      -0.148998            -2.211394            8.212019
| 21>   H                      0.737630             -0.846319            7.968315
| 22>   H                      -1.056056            -0.711829            7.991936
| 23> *
| 24>
| 25> #Run DFT-D3 single point of the molecule with dimer basis set
| 26> $new_job
| 27> %base "22-73_DFT_A"
| 28> ! wB97X-D3 def2-TZVP TIGHTSCF CHELPG PMODEL
| 29>
| 30> %scf
| 31> MaxIter 1000
| 32> end
| 33>
| 34> * xyz 0 1
| 35>   C                      -3.152113            -1.685180            5.511687
| 36>   O                      -3.578452            -2.644021            4.578806
| 37>   H                      -2.831220            -3.224825            4.420491
| 38>   H                      -2.231712            -1.127083            5.128433
| 39>   H                      -3.887088            -1.022022            5.889255
| 40>   H                      -2.718246            -2.180419            6.352590
| 41>   C                    : -0.190552            -1.346349            7.638156
| 42>   O                    : -0.224249            -1.612135            6.254584
| 43>   H                    : -0.894124            -2.259526            6.100386
| 44>   H                    : -0.148998            -2.211394            8.212019
| 45>   H                    : 0.737630             -0.846319            7.968315
| 46>   H                    : -1.056056            -0.711829            7.991936
| 47> *
| 48>
| 49> #Run DFT-D3 single point of the particle with dimer basis set
| 50> $new_job
| 51> %base "22-73_DFT_B"
| 52> ! wB97X-D3 def2-TZVP TIGHTSCF CHELPG PMODEL
| 53>
| 54> %scf
| 55> MaxIter 1000
| 56> end
| 57>
| 58> * xyz 0 1
| 59>   C                    : -3.152113            -1.685180            5.511687
| 60>   O                    : -3.578452            -2.644021            4.578806
| 61>   H                    : -2.831220            -3.224825            4.420491
| 62>   H                    : -2.231712            -1.127083            5.128433
| 63>   H                    : -3.887088            -1.022022            5.889255
| 64>   H                    : -2.718246            -2.180419            6.352590
| 65>   C                      -0.190552            -1.346349            7.638156
| 66>   O                      -0.224249            -1.612135            6.254584
| 67>   H                      -0.894124            -2.259526            6.100386
| 68>   H                      -0.148998            -2.211394            8.212019
| 69>   H                      0.737630             -0.846319            7.968315
| 70>   H                      -1.056056            -0.711829            7.991936
| 71> *
| 72>
| 73>                          ****END OF INPUT****
 Total Charge           Charge          ....    0
 Multiplicity           Mult            ....    1
 Number of Electrons    NEL             ....   36
Dispersion correction           -0.002054113
FINAL SINGLE POINT ENERGY      -231.458611970044
Dispersion correction           -0.000223718
FINAL SINGLE POINT ENERGY      -115.729948050742

CARTESIAN COORDINATES (ANGSTROEM)
---------------------------------
  C     -3.152113   -1.685180    5.511687
  O     -3.578452   -2.644021    4.578806
  H     -2.831220   -3.224825    4.420491
  H     -2.231712   -1.127083    5.128433
  H     -3.887088   -1.022022    5.889255
  H     -2.718246   -2.180419    6.352590
  C     -0.190552   -1.346349    7.638156
  O     -0.224249   -1.612135    6.254584
  H     -0.894124   -2.259526    6.100386
  H     -0.148998   -2.211394    8.212019
  H      0.737630   -0.846319    7.968315
  H     -1.056056   -0.711829    7.991936

 Multiplicity           Mult            ....    1
 Number of Electrons    NEL             ....   18
 Basis Dimension        Dim             ....  172

ORBITAL ENERGIES
----------------

  NO   OCC          E(Eh)            E(eV)
   0   2.0000     -19.233051      -523.3579
   1   2.0000     -10.312134      -280.6074
   2   2.0000      -1.142883       -31.0994
   3   2.0000      -0.800617       -21.7859
   4   2.0000      -0.617393       -16.8001
   5   2.0000      -0.544181       -14.8079
   6   2.0000      -0.528396       -14.3784
   7   2.0000      -0.431793       -11.7497
   8   2.0000      -0.377979       -10.2853
   9   0.0000       0.077370         2.1053
  10   0.0000       0.136586         3.7167
  11   0.0000       0.150108         4.0846
  12   0.0000       0.173121         4.7109
  13   0.0000       0.199805         5.4370

MULLIKEN ATOMIC CHARGES
-----------------------
   0 C :   -0.009753
   1 O :    0.000631
   2 H :   -0.000103
   3 H :   -0.003686
   4 H :   -0.001262
   5 H :   -0.002948
   6 C :   -0.178669
   7 O :   -0.455343
   8 H :    0.315027
   9 H :    0.113254
  10 H :    0.121342
  11 H :    0.101511
Sum of atomic charges:    0.0000000

LOEWDIN ATOMIC CHARGES
----------------------
   0 C :   -0.020048
   1 O :   -0.000113
   2 H :   -0.000499
   3 H :   -0.015090
   4 H :   -0.000236
   5 H :   -0.009083
   6 C :   -0.388416
   7 O :   -0.034465
   8 H :    0.168810
   9 H :    0.084269
  10 H :    0.112243
  11 H :    0.102628

  Mayer bond orders larger than 0.1
B(  6-C ,  7-O ) :   1.0023 B(  6-C ,  9-H ) :   0.9803 B(  6-C , 10-H ) :   0.9738
B(  6-C , 11-H ) :   0.9734 B(  7-O ,  8-H ) :   0.9037

Dispersion correction           -0.000247178
FINAL SINGLE POINT ENERGY      -115.732705125735

DIPOLE MOMENT
-------------
                                X             Y             Z
Electronic contribution:      0.06084      -0.31178      -1.88079
Nuclear contribution   :     -0.42836      -0.03153       2.35278
                        -----------------------------------------
Total Dipole Moment    :     -0.36752      -0.34332       0.47199
                        -----------------------------------------
Magnitude (a.u.)       :      0.68972
Magnitude (Debye)      :      1.75313

Rotational constants in cm-1:     4.460377     0.823763     0.802247
Rotational constants in MHz : 133718.750044 24695.789042 24050.757990

                             ****ORCA TERMINATED NORMALLY****
TOTAL RUN TIME: 0 days 0 hours 0 minutes 59 seconds 414 msec
