                         Program Version 4.1.2  - RELEASE  -
|  1> #Run DFT-D3 single point of the dimer
|  2> ! wB97X-D3 def2-TZVP TIGHTSCF CHELPG PMODEL PAL8
|  3>
|  4> %base "8-200_DFT_AB"
|  5>
|  6> %scf
|  7> MaxIter 1000
|  8> end
|  9>
| 10> * xyz 0 1
| 11>   C                      1.269871             9.879331             -0.599120
| 12>   O                      0.550984             10.401373            -1.687121
| 13>   H                      1.012664             10.160186            -2.532134
| 14>   H                      2.167690             10.427401            -0.377676
| 15>   H                      0.681937             9.939211             0.333634
| 16>   H                      1.542014             8.821029             -0.738487
| 17>   C                      -3.138727            8.217239             -2.120672
| 18>   O                      -2.282853            9.113877             -1.452980
| 19>   H                      -1.562106            9.383899             -2.066874
| 20>   H                      -4.233444            8.302739             -1.951435
| 21>   H                      -3.002167            8.357074             -3.218072
| 22>   H                      -2.872180            7.127421             -1.853362
| 23> *
| 24>
| 25> #Run DFT-D3 single point of the molecule with dimer basis set
| 26> $new_job
| 27> %base "8-200_DFT_A"
| 28> ! wB97X-D3 def2-TZVP TIGHTSCF CHELPG PMODEL
| 29>
| 30> %scf
| 31> MaxIter 1000
| 32> end
| 33>
| 34> * xyz 0 1
| 35>   C                      1.269871             9.879331             -0.599120
| 36>   O                      0.550984             10.401373            -1.687121
| 37>   H                      1.012664             10.160186            -2.532134
| 38>   H                      2.167690             10.427401            -0.377676
| 39>   H                      0.681937             9.939211             0.333634
| 40>   H                      1.542014             8.821029             -0.738487
| 41>   C                    : -3.138727            8.217239             -2.120672
| 42>   O                    : -2.282853            9.113877             -1.452980
| 43>   H                    : -1.562106            9.383899             -2.066874
| 44>   H                    : -4.233444            8.302739             -1.951435
| 45>   H                    : -3.002167            8.357074             -3.218072
| 46>   H                    : -2.872180            7.127421             -1.853362
| 47> *
| 48>
| 49> #Run DFT-D3 single point of the particle with dimer basis set
| 50> $new_job
| 51> %base "8-200_DFT_B"
| 52> ! wB97X-D3 def2-TZVP TIGHTSCF CHELPG PMODEL
| 53>
| 54> %scf
| 55> MaxIter 1000
| 56> end
| 57>
| 58> * xyz 0 1
| 59>   C                    : 1.269871             9.879331             -0.599120
| 60>   O                    : 0.550984             10.401373            -1.687121
| 61>   H                    : 1.012664             10.160186            -2.532134
| 62>   H                    : 2.167690             10.427401            -0.377676
| 63>   H                    : 0.681937             9.939211             0.333634
| 64>   H                    : 1.542014             8.821029             -0.738487
| 65>   C                      -3.138727            8.217239             -2.120672
| 66>   O                      -2.282853            9.113877             -1.452980
| 67>   H                      -1.562106            9.383899             -2.066874
| 68>   H                      -4.233444            8.302739             -1.951435
| 69>   H                      -3.002167            8.357074             -3.218072
| 70>   H                      -2.872180            7.127421             -1.853362
| 71> *
| 72>
| 73>                          ****END OF INPUT****
 Total Charge           Charge          ....    0
 Multiplicity           Mult            ....    1
 Number of Electrons    NEL             ....   36
Dispersion correction           -0.001504895
FINAL SINGLE POINT ENERGY      -231.469676731177
Dispersion correction           -0.000249384
FINAL SINGLE POINT ENERGY      -115.735402254062

CARTESIAN COORDINATES (ANGSTROEM)
---------------------------------
  C      1.269871    9.879331   -0.599120
  O      0.550984   10.401373   -1.687121
  H      1.012664   10.160186   -2.532134
  H      2.167690   10.427401   -0.377676
  H      0.681937    9.939211    0.333634
  H      1.542014    8.821029   -0.738487
  C     -3.138727    8.217239   -2.120672
  O     -2.282853    9.113877   -1.452980
  H     -1.562106    9.383899   -2.066874
  H     -4.233444    8.302739   -1.951435
  H     -3.002167    8.357074   -3.218072
  H     -2.872180    7.127421   -1.853362

 Multiplicity           Mult            ....    1
 Number of Electrons    NEL             ....   18
 Basis Dimension        Dim             ....  172

ORBITAL ENERGIES
----------------

  NO   OCC          E(Eh)            E(eV)
   0   2.0000     -19.235140      -523.4148
   1   2.0000     -10.324166      -280.9348
   2   2.0000      -1.135380       -30.8953
   3   2.0000      -0.787314       -21.4239
   4   2.0000      -0.610680       -16.6174
   5   2.0000      -0.534113       -14.5340
   6   2.0000      -0.531732       -14.4692
   7   2.0000      -0.426331       -11.6011
   8   2.0000      -0.372031       -10.1235
   9   0.0000       0.075042         2.0420
  10   0.0000       0.122045         3.3210
  11   0.0000       0.147104         4.0029
  12   0.0000       0.172388         4.6909
  13   0.0000       0.193266         5.2590

MULLIKEN ATOMIC CHARGES
-----------------------
   0 C :   -0.003202
   1 O :    0.000196
   2 H :   -0.000220
   3 H :   -0.000217
   4 H :   -0.000224
   5 H :    0.000073
   6 C :   -0.182195
   7 O :   -0.462886
   8 H :    0.322484
   9 H :    0.121716
  10 H :    0.105646
  11 H :    0.098830
Sum of atomic charges:    0.0000000

LOEWDIN ATOMIC CHARGES
----------------------
   0 C :   -0.003622
   1 O :   -0.005421
   2 H :   -0.000869
   3 H :   -0.000082
   4 H :   -0.000620
   5 H :   -0.000235
   6 C :   -0.406008
   7 O :   -0.080477
   8 H :    0.189646
   9 H :    0.105580
  10 H :    0.098909
  11 H :    0.103199

  Mayer bond orders larger than 0.1
B(  6-C ,  7-O ) :   1.0091 B(  6-C ,  9-H ) :   0.9660 B(  6-C , 10-H ) :   0.9885
B(  6-C , 11-H ) :   0.9724 B(  7-O ,  8-H ) :   0.8921

Dispersion correction           -0.000262525
FINAL SINGLE POINT ENERGY      -115.730056609895

DIPOLE MOMENT
-------------
                                X             Y             Z
Electronic contribution:      0.98584       1.28098       1.07475
Nuclear contribution   :     -0.87197      -1.42578      -1.74374
                        -----------------------------------------
Total Dipole Moment    :      0.11386      -0.14480      -0.66899
                        -----------------------------------------
Magnitude (a.u.)       :      0.69388
Magnitude (Debye)      :      1.76371

Rotational constants in cm-1:     4.166173     0.819692     0.793341
Rotational constants in MHz : 124898.719119 24573.734749 23783.769846

                             ****ORCA TERMINATED NORMALLY****
TOTAL RUN TIME: 0 days 0 hours 0 minutes 45 seconds 61 msec
