                         Program Version 4.1.2  - RELEASE  -
|  1> #Run DFT-D3 single point of the dimer
|  2> ! wB97X-D3 def2-TZVP TIGHTSCF CHELPG PMODEL PAL8
|  3>
|  4> %base "4-162_DFT_AB"
|  5>
|  6> %scf
|  7> MaxIter 1000
|  8> end
|  9>
| 10> * xyz 0 1
| 11>   C                      2.722578             4.133135             -4.885620
| 12>   O                      4.120572             4.134643             -4.407210
| 13>   H                      4.093610             4.370129             -3.497614
| 14>   H                      2.658445             4.004755             -5.980850
| 15>   H                      2.083581             3.392493             -4.388767
| 16>   H                      2.263852             5.133771             -4.764851
| 17>   C                      1.018940             6.694985             -1.032136
| 18>   O                      2.230174             6.372593             -0.305373
| 19>   H                      2.404146             5.410996             -0.444812
| 20>   H                      0.998442             7.759421             -1.303204
| 21>   H                      1.070386             6.146931             -2.024044
| 22>   H                      0.123242             6.356830             -0.452372
| 23> *
| 24>
| 25> #Run DFT-D3 single point of the molecule with dimer basis set
| 26> $new_job
| 27> %base "4-162_DFT_A"
| 28> ! wB97X-D3 def2-TZVP TIGHTSCF CHELPG PMODEL
| 29>
| 30> %scf
| 31> MaxIter 1000
| 32> end
| 33>
| 34> * xyz 0 1
| 35>   C                      2.722578             4.133135             -4.885620
| 36>   O                      4.120572             4.134643             -4.407210
| 37>   H                      4.093610             4.370129             -3.497614
| 38>   H                      2.658445             4.004755             -5.980850
| 39>   H                      2.083581             3.392493             -4.388767
| 40>   H                      2.263852             5.133771             -4.764851
| 41>   C                    : 1.018940             6.694985             -1.032136
| 42>   O                    : 2.230174             6.372593             -0.305373
| 43>   H                    : 2.404146             5.410996             -0.444812
| 44>   H                    : 0.998442             7.759421             -1.303204
| 45>   H                    : 1.070386             6.146931             -2.024044
| 46>   H                    : 0.123242             6.356830             -0.452372
| 47> *
| 48>
| 49> #Run DFT-D3 single point of the particle with dimer basis set
| 50> $new_job
| 51> %base "4-162_DFT_B"
| 52> ! wB97X-D3 def2-TZVP TIGHTSCF CHELPG PMODEL
| 53>
| 54> %scf
| 55> MaxIter 1000
| 56> end
| 57>
| 58> * xyz 0 1
| 59>   C                    : 2.722578             4.133135             -4.885620
| 60>   O                    : 4.120572             4.134643             -4.407210
| 61>   H                    : 4.093610             4.370129             -3.497614
| 62>   H                    : 2.658445             4.004755             -5.980850
| 63>   H                    : 2.083581             3.392493             -4.388767
| 64>   H                    : 2.263852             5.133771             -4.764851
| 65>   C                      1.018940             6.694985             -1.032136
| 66>   O                      2.230174             6.372593             -0.305373
| 67>   H                      2.404146             5.410996             -0.444812
| 68>   H                      0.998442             7.759421             -1.303204
| 69>   H                      1.070386             6.146931             -2.024044
| 70>   H                      0.123242             6.356830             -0.452372
| 71> *
| 72>
| 73>                          ****END OF INPUT****
 Total Charge           Charge          ....    0
 Multiplicity           Mult            ....    1
 Number of Electrons    NEL             ....   36
Dispersion correction           -0.001085052
FINAL SINGLE POINT ENERGY      -231.464596984513
Dispersion correction           -0.000277858
FINAL SINGLE POINT ENERGY      -115.732156351380

CARTESIAN COORDINATES (ANGSTROEM)
---------------------------------
  C      2.722578    4.133135   -4.885620
  O      4.120572    4.134643   -4.407210
  H      4.093610    4.370129   -3.497614
  H      2.658445    4.004755   -5.980850
  H      2.083581    3.392493   -4.388767
  H      2.263852    5.133771   -4.764851
  C      1.018940    6.694985   -1.032136
  O      2.230174    6.372593   -0.305373
  H      2.404146    5.410996   -0.444812
  H      0.998442    7.759421   -1.303204
  H      1.070386    6.146931   -2.024044
  H      0.123242    6.356830   -0.452372

 Multiplicity           Mult            ....    1
 Number of Electrons    NEL             ....   18
 Basis Dimension        Dim             ....  172

ORBITAL ENERGIES
----------------

  NO   OCC          E(Eh)            E(eV)
   0   2.0000     -19.230793      -523.2965
   1   2.0000     -10.323785      -280.9245
   2   2.0000      -1.120649       -30.4944
   3   2.0000      -0.787696       -21.4343
   4   2.0000      -0.596393       -16.2287
   5   2.0000      -0.541663       -14.7394
   6   2.0000      -0.520618       -14.1667
   7   2.0000      -0.429794       -11.6953
   8   2.0000      -0.373297       -10.1579
   9   0.0000       0.073314         1.9950
  10   0.0000       0.118456         3.2234
  11   0.0000       0.146021         3.9734
  12   0.0000       0.170549         4.6409
  13   0.0000       0.179102         4.8736

MULLIKEN ATOMIC CHARGES
-----------------------
   0 C :    0.000317
   1 O :    0.000052
   2 H :   -0.000602
   3 H :    0.000028
   4 H :   -0.000168
   5 H :   -0.000057
   6 C :   -0.173039
   7 O :   -0.483017
   8 H :    0.317311
   9 H :    0.127200
  10 H :    0.101489
  11 H :    0.110485
Sum of atomic charges:    0.0000000

LOEWDIN ATOMIC CHARGES
----------------------
   0 C :   -0.000474
   1 O :   -0.000014
   2 H :   -0.000360
   3 H :   -0.000001
   4 H :   -0.000067
   5 H :   -0.000609
   6 C :   -0.370187
   7 O :   -0.120661
   8 H :    0.181473
   9 H :    0.107891
  10 H :    0.102510
  11 H :    0.100498

  Mayer bond orders larger than 0.1
B(  6-C ,  7-O ) :   0.9940 B(  6-C ,  9-H ) :   0.9687 B(  6-C , 10-H ) :   0.9825
B(  6-C , 11-H ) :   0.9692 B(  7-O ,  8-H ) :   0.8963

Dispersion correction           -0.000253575
FINAL SINGLE POINT ENERGY      -115.732437611839

DIPOLE MOMENT
-------------
                                X             Y             Z
Electronic contribution:      1.45685      -0.15078       1.03253
Nuclear contribution   :     -1.83402      -0.30464      -1.43500
                        -----------------------------------------
Total Dipole Moment    :     -0.37716      -0.45542      -0.40248
                        -----------------------------------------
Magnitude (a.u.)       :      0.71529
Magnitude (Debye)      :      1.81813

Rotational constants in cm-1:     4.032696     0.796726     0.773604
Rotational constants in MHz : 120897.181668 23885.241770 23192.064719

                             ****ORCA TERMINATED NORMALLY****
TOTAL RUN TIME: 0 days 0 hours 1 minutes 24 seconds 329 msec
