                         Program Version 4.1.2  - RELEASE  -
|  1> #Run DFT-D3 single point of the dimer
|  2> ! wB97X-D3 def2-TZVP TIGHTSCF CHELPG PMODEL PAL8
|  3>
|  4> %base "1-9_DFT_AB"
|  5>
|  6> %scf
|  7> MaxIter 1000
|  8> end
|  9>
| 10> * xyz 0 1
| 11>   C                      9.200212             -0.043180            -9.565434
| 12>   O                      9.554774             -1.096549            -10.437954
| 13>   H                      8.810074             -1.397216            -10.963282
| 14>   H                      8.999381             0.938435             -10.111305
| 15>   H                      8.186143             -0.271036            -9.063142
| 16>   H                      9.978247             0.232531             -8.802907
| 17>   C                      9.157100             2.402811             -6.691442
| 18>   O                      9.237402             1.357602             -5.794396
| 19>   H                      9.548221             1.587580             -4.903882
| 20>   H                      8.754190             3.291176             -6.171335
| 21>   H                      10.147818            2.677296             -7.054864
| 22>   H                      8.529204             2.090750             -7.562426
| 23> *
| 24>
| 25> #Run DFT-D3 single point of the molecule with dimer basis set
| 26> $new_job
| 27> %base "1-9_DFT_A"
| 28> ! wB97X-D3 def2-TZVP TIGHTSCF CHELPG PMODEL
| 29>
| 30> %scf
| 31> MaxIter 1000
| 32> end
| 33>
| 34> * xyz 0 1
| 35>   C                      9.200212             -0.043180            -9.565434
| 36>   O                      9.554774             -1.096549            -10.437954
| 37>   H                      8.810074             -1.397216            -10.963282
| 38>   H                      8.999381             0.938435             -10.111305
| 39>   H                      8.186143             -0.271036            -9.063142
| 40>   H                      9.978247             0.232531             -8.802907
| 41>   C                    : 9.157100             2.402811             -6.691442
| 42>   O                    : 9.237402             1.357602             -5.794396
| 43>   H                    : 9.548221             1.587580             -4.903882
| 44>   H                    : 8.754190             3.291176             -6.171335
| 45>   H                    : 10.147818            2.677296             -7.054864
| 46>   H                    : 8.529204             2.090750             -7.562426
| 47> *
| 48>
| 49> #Run DFT-D3 single point of the particle with dimer basis set
| 50> $new_job
| 51> %base "1-9_DFT_B"
| 52> ! wB97X-D3 def2-TZVP TIGHTSCF CHELPG PMODEL
| 53>
| 54> %scf
| 55> MaxIter 1000
| 56> end
| 57>
| 58> * xyz 0 1
| 59>   C                    : 9.200212             -0.043180            -9.565434
| 60>   O                    : 9.554774             -1.096549            -10.437954
| 61>   H                    : 8.810074             -1.397216            -10.963282
| 62>   H                    : 8.999381             0.938435             -10.111305
| 63>   H                    : 8.186143             -0.271036            -9.063142
| 64>   H                    : 9.978247             0.232531             -8.802907
| 65>   C                      9.157100             2.402811             -6.691442
| 66>   O                      9.237402             1.357602             -5.794396
| 67>   H                      9.548221             1.587580             -4.903882
| 68>   H                      8.754190             3.291176             -6.171335
| 69>   H                      10.147818            2.677296             -7.054864
| 70>   H                      8.529204             2.090750             -7.562426
| 71> *
| 72>
| 73>                          ****END OF INPUT****
 Total Charge           Charge          ....    0
 Multiplicity           Mult            ....    1
 Number of Electrons    NEL             ....   36
Dispersion correction           -0.001651031
FINAL SINGLE POINT ENERGY      -231.464741700512
Dispersion correction           -0.000274072
FINAL SINGLE POINT ENERGY      -115.730055488060

CARTESIAN COORDINATES (ANGSTROEM)
---------------------------------
  C      9.200212   -0.043180   -9.565434
  O      9.554774   -1.096549  -10.437954
  H      8.810074   -1.397216  -10.963282
  H      8.999381    0.938435  -10.111305
  H      8.186143   -0.271036   -9.063142
  H      9.978247    0.232531   -8.802907
  C      9.157100    2.402811   -6.691442
  O      9.237402    1.357602   -5.794396
  H      9.548221    1.587580   -4.903882
  H      8.754190    3.291176   -6.171335
  H     10.147818    2.677296   -7.054864
  H      8.529204    2.090750   -7.562426

 Multiplicity           Mult            ....    1
 Number of Electrons    NEL             ....   18
 Basis Dimension        Dim             ....  172

ORBITAL ENERGIES
----------------

  NO   OCC          E(Eh)            E(eV)
   0   2.0000     -19.225556      -523.1540
   1   2.0000     -10.313548      -280.6459
   2   2.0000      -1.139360       -31.0036
   3   2.0000      -0.792850       -21.5745
   4   2.0000      -0.615948       -16.7608
   5   2.0000      -0.541786       -14.7428
   6   2.0000      -0.533169       -14.5083
   7   2.0000      -0.421642       -11.4735
   8   2.0000      -0.367082        -9.9888
   9   0.0000       0.089058         2.4234
  10   0.0000       0.116229         3.1628
  11   0.0000       0.151121         4.1122
  12   0.0000       0.181262         4.9324
  13   0.0000       0.190097         5.1728

MULLIKEN ATOMIC CHARGES
-----------------------
   0 C :    0.000754
   1 O :    0.000064
   2 H :    0.000009
   3 H :   -0.000287
   4 H :   -0.000163
   5 H :    0.000668
   6 C :   -0.140462
   7 O :   -0.488686
   8 H :    0.320924
   9 H :    0.099908
  10 H :    0.090027
  11 H :    0.117243
Sum of atomic charges:   -0.0000000

LOEWDIN ATOMIC CHARGES
----------------------
   0 C :   -0.005276
   1 O :   -0.000019
   2 H :   -0.000006
   3 H :   -0.000861
   4 H :   -0.000657
   5 H :   -0.001743
   6 C :   -0.407102
   7 O :   -0.062327
   8 H :    0.175240
   9 H :    0.095798
  10 H :    0.090465
  11 H :    0.116487

  Mayer bond orders larger than 0.1
B(  6-C ,  7-O ) :   0.9946 B(  6-C ,  9-H ) :   0.9839 B(  6-C , 10-H ) :   0.9785
B(  6-C , 11-H ) :   0.9695 B(  7-O ,  8-H ) :   0.8879

Dispersion correction           -0.000236655
FINAL SINGLE POINT ENERGY      -115.733578902424

DIPOLE MOMENT
-------------
                                X             Y             Z
Electronic contribution:      0.03518      -1.42216       1.03805
Nuclear contribution   :      0.13785       1.97989      -0.79452
                        -----------------------------------------
Total Dipole Moment    :      0.17303       0.55773       0.24353
                        -----------------------------------------
Magnitude (a.u.)       :      0.63270
Magnitude (Debye)      :      1.60820

Rotational constants in cm-1:     4.254415     0.861728     0.824635
Rotational constants in MHz : 127544.155030 25833.958948 24721.938128

                             ****ORCA TERMINATED NORMALLY****
TOTAL RUN TIME: 0 days 0 hours 5 minutes 47 seconds 936 msec
