                         Program Version 4.1.2  - RELEASE  -
|  1> #Run DFT-D3 single point of the dimer
|  2> ! wB97X-D3 def2-TZVP TIGHTSCF CHELPG PMODEL PAL8
|  3>
|  4> %base "14-92_DFT_AB"
|  5>
|  6> %scf
|  7> MaxIter 1000
|  8> end
|  9>
| 10> * xyz 0 1
| 11>   C                      -8.023118            5.970073             -7.301579
| 12>   O                      -7.208899            5.748031             -6.199433
| 13>   H                      -7.582233            5.100643             -5.540227
| 14>   H                      -8.491772            6.984259             -7.204203
| 15>   H                      -7.494694            5.832346             -8.256467
| 16>   H                      -8.841849            5.215604             -7.301558
| 17>   C                      -7.605909            2.443021             -5.622041
| 18>   O                      -8.394434            3.474753             -5.066151
| 19>   H                      -8.746984            3.268596             -4.163043
| 20>   H                      -6.908455            2.024404             -4.832031
| 21>   H                      -8.242513            1.688588             -6.000919
| 22>   H                      -7.027775            2.828739             -6.512241
| 23> *
| 24>
| 25> #Run DFT-D3 single point of the molecule with dimer basis set
| 26> $new_job
| 27> %base "14-92_DFT_A"
| 28> ! wB97X-D3 def2-TZVP TIGHTSCF CHELPG PMODEL
| 29>
| 30> %scf
| 31> MaxIter 1000
| 32> end
| 33>
| 34> * xyz 0 1
| 35>   C                      -8.023118            5.970073             -7.301579
| 36>   O                      -7.208899            5.748031             -6.199433
| 37>   H                      -7.582233            5.100643             -5.540227
| 38>   H                      -8.491772            6.984259             -7.204203
| 39>   H                      -7.494694            5.832346             -8.256467
| 40>   H                      -8.841849            5.215604             -7.301558
| 41>   C                    : -7.605909            2.443021             -5.622041
| 42>   O                    : -8.394434            3.474753             -5.066151
| 43>   H                    : -8.746984            3.268596             -4.163043
| 44>   H                    : -6.908455            2.024404             -4.832031
| 45>   H                    : -8.242513            1.688588             -6.000919
| 46>   H                    : -7.027775            2.828739             -6.512241
| 47> *
| 48>
| 49> #Run DFT-D3 single point of the particle with dimer basis set
| 50> $new_job
| 51> %base "14-92_DFT_B"
| 52> ! wB97X-D3 def2-TZVP TIGHTSCF CHELPG PMODEL
| 53>
| 54> %scf
| 55> MaxIter 1000
| 56> end
| 57>
| 58> * xyz 0 1
| 59>   C                    : -8.023118            5.970073             -7.301579
| 60>   O                    : -7.208899            5.748031             -6.199433
| 61>   H                    : -7.582233            5.100643             -5.540227
| 62>   H                    : -8.491772            6.984259             -7.204203
| 63>   H                    : -7.494694            5.832346             -8.256467
| 64>   H                    : -8.841849            5.215604             -7.301558
| 65>   C                      -7.605909            2.443021             -5.622041
| 66>   O                      -8.394434            3.474753             -5.066151
| 67>   H                      -8.746984            3.268596             -4.163043
| 68>   H                      -6.908455            2.024404             -4.832031
| 69>   H                      -8.242513            1.688588             -6.000919
| 70>   H                      -7.027775            2.828739             -6.512241
| 71> *
| 72>
| 73>                          ****END OF INPUT****
 Total Charge           Charge          ....    0
 Multiplicity           Mult            ....    1
 Number of Electrons    NEL             ....   36
Dispersion correction           -0.002113607
FINAL SINGLE POINT ENERGY      -231.474276660617
Dispersion correction           -0.000249417
FINAL SINGLE POINT ENERGY      -115.731997111515

CARTESIAN COORDINATES (ANGSTROEM)
---------------------------------
  C     -8.023118    5.970073   -7.301579
  O     -7.208899    5.748031   -6.199433
  H     -7.582233    5.100643   -5.540227
  H     -8.491772    6.984259   -7.204203
  H     -7.494694    5.832346   -8.256467
  H     -8.841849    5.215604   -7.301558
  C     -7.605909    2.443021   -5.622041
  O     -8.394434    3.474753   -5.066151
  H     -8.746984    3.268596   -4.163043
  H     -6.908455    2.024404   -4.832031
  H     -8.242513    1.688588   -6.000919
  H     -7.027775    2.828739   -6.512241

 Multiplicity           Mult            ....    1
 Number of Electrons    NEL             ....   18
 Basis Dimension        Dim             ....  172

ORBITAL ENERGIES
----------------

  NO   OCC          E(Eh)            E(eV)
   0   2.0000     -19.229074      -523.2497
   1   2.0000     -10.317308      -280.7482
   2   2.0000      -1.126879       -30.6639
   3   2.0000      -0.791786       -21.5456
   4   2.0000      -0.604792       -16.4572
   5   2.0000      -0.544359       -14.8128
   6   2.0000      -0.526607       -14.3297
   7   2.0000      -0.422408       -11.4943
   8   2.0000      -0.370813       -10.0903
   9   0.0000       0.096630         2.6294
  10   0.0000       0.122844         3.3428
  11   0.0000       0.151912         4.1337
  12   0.0000       0.190191         5.1753
  13   0.0000       0.197811         5.3827

MULLIKEN ATOMIC CHARGES
-----------------------
   0 C :    0.004922
   1 O :   -0.000457
   2 H :   -0.009948
   3 H :   -0.000288
   4 H :   -0.000377
   5 H :   -0.005404
   6 C :   -0.154549
   7 O :   -0.487669
   8 H :    0.319065
   9 H :    0.102561
  10 H :    0.110483
  11 H :    0.121660
Sum of atomic charges:   -0.0000000

LOEWDIN ATOMIC CHARGES
----------------------
   0 C :   -0.005073
   1 O :   -0.005746
   2 H :   -0.048108
   3 H :   -0.000031
   4 H :   -0.000095
   5 H :   -0.003619
   6 C :   -0.381562
   7 O :   -0.048454
   8 H :    0.184826
   9 H :    0.103079
  10 H :    0.087218
  11 H :    0.117565

  Mayer bond orders larger than 0.1
B(  6-C ,  7-O ) :   0.9729 B(  6-C ,  9-H ) :   0.9774 B(  6-C , 10-H ) :   0.9739
B(  6-C , 11-H ) :   0.9733 B(  7-O ,  8-H ) :   0.8862

Dispersion correction           -0.000251405
FINAL SINGLE POINT ENERGY      -115.731913039733

DIPOLE MOMENT
-------------
                                X             Y             Z
Electronic contribution:     -0.98005       1.32779       0.57589
Nuclear contribution   :      1.06014      -1.89425      -0.23429
                        -----------------------------------------
Total Dipole Moment    :      0.08009      -0.56646       0.34160
                        -----------------------------------------
Magnitude (a.u.)       :      0.66632
Magnitude (Debye)      :      1.69366

Rotational constants in cm-1:     4.193030     0.828499     0.793079
Rotational constants in MHz : 125703.863218 24837.770610 23775.905730

                             ****ORCA TERMINATED NORMALLY****
TOTAL RUN TIME: 0 days 0 hours 1 minutes 11 seconds 780 msec
