                         Program Version 4.1.2  - RELEASE  -
|  1> #Run DFT-D3 single point of the dimer
|  2> ! wB97X-D3 def2-TZVP TIGHTSCF CHELPG PMODEL PAL8
|  3>
|  4> %base "5-29_DFT_AB"
|  5>
|  6> %scf
|  7> MaxIter 1000
|  8> end
|  9>
| 10> * xyz 0 1
| 11>   C                      2.739132             -3.942480            -1.008213
| 12>   O                      1.753076             -3.898102            -0.067553
| 13>   H                      2.322324             -4.076974            0.640020
| 14>   H                      3.466281             -4.735064            -0.636827
| 15>   H                      2.402265             -4.144417            -2.020121
| 16>   H                      3.256188             -3.012980            -0.955926
| 17>   C                      3.444995             -7.607773            -1.742963
| 18>   O                      4.584337             -7.992641            -1.053589
| 19>   H                      5.128478             -7.968528            -1.797821
| 20>   H                      3.688100             -6.769528            -2.355654
| 21>   H                      2.974968             -8.387268            -2.383765
| 22>   H                      2.759493             -7.192453            -0.974357
| 23> *
| 24>
| 25> #Run DFT-D3 single point of the molecule with dimer basis set
| 26> $new_job
| 27> %base "5-29_DFT_A"
| 28> ! wB97X-D3 def2-TZVP TIGHTSCF CHELPG PMODEL
| 29>
| 30> %scf
| 31> MaxIter 1000
| 32> end
| 33>
| 34> * xyz 0 1
| 35>   C                      2.739132             -3.942480            -1.008213
| 36>   O                      1.753076             -3.898102            -0.067553
| 37>   H                      2.322324             -4.076974            0.640020
| 38>   H                      3.466281             -4.735064            -0.636827
| 39>   H                      2.402265             -4.144417            -2.020121
| 40>   H                      3.256188             -3.012980            -0.955926
| 41>   C                    : 3.444995             -7.607773            -1.742963
| 42>   O                    : 4.584337             -7.992641            -1.053589
| 43>   H                    : 5.128478             -7.968528            -1.797821
| 44>   H                    : 3.688100             -6.769528            -2.355654
| 45>   H                    : 2.974968             -8.387268            -2.383765
| 46>   H                    : 2.759493             -7.192453            -0.974357
| 47> *
| 48>
| 49> #Run DFT-D3 single point of the particle with dimer basis set
| 50> $new_job
| 51> %base "5-29_DFT_B"
| 52> ! wB97X-D3 def2-TZVP TIGHTSCF CHELPG PMODEL
| 53>
| 54> %scf
| 55> MaxIter 1000
| 56> end
| 57>
| 58> * xyz 0 1
| 59>   C                    : 2.739132             -3.942480            -1.008213
| 60>   O                    : 1.753076             -3.898102            -0.067553
| 61>   H                    : 2.322324             -4.076974            0.640020
| 62>   H                    : 3.466281             -4.735064            -0.636827
| 63>   H                    : 2.402265             -4.144417            -2.020121
| 64>   H                    : 3.256188             -3.012980            -0.955926
| 65>   C                      3.444995             -7.607773            -1.742963
| 66>   O                      4.584337             -7.992641            -1.053589
| 67>   H                      5.128478             -7.968528            -1.797821
| 68>   H                      3.688100             -6.769528            -2.355654
| 69>   H                      2.974968             -8.387268            -2.383765
| 70>   H                      2.759493             -7.192453            -0.974357
| 71> *
| 72>
| 73>                          ****END OF INPUT****
 Total Charge           Charge          ....    0
 Multiplicity           Mult            ....    1
 Number of Electrons    NEL             ....   36
Dispersion correction           -0.001568716
FINAL SINGLE POINT ENERGY      -231.446401924258
Dispersion correction           -0.000170215
FINAL SINGLE POINT ENERGY      -115.720002168499

CARTESIAN COORDINATES (ANGSTROEM)
---------------------------------
  C      2.739132   -3.942480   -1.008213
  O      1.753076   -3.898102   -0.067553
  H      2.322324   -4.076974    0.640020
  H      3.466281   -4.735064   -0.636827
  H      2.402265   -4.144417   -2.020121
  H      3.256188   -3.012980   -0.955926
  C      3.444995   -7.607773   -1.742963
  O      4.584337   -7.992641   -1.053589
  H      5.128478   -7.968528   -1.797821
  H      3.688100   -6.769528   -2.355654
  H      2.974968   -8.387268   -2.383765
  H      2.759493   -7.192453   -0.974357

 Multiplicity           Mult            ....    1
 Number of Electrons    NEL             ....   18
 Basis Dimension        Dim             ....  172

ORBITAL ENERGIES
----------------

  NO   OCC          E(Eh)            E(eV)
   0   2.0000     -19.230178      -523.2797
   1   2.0000     -10.312057      -280.6053
   2   2.0000      -1.165080       -31.7034
   3   2.0000      -0.789668       -21.4880
   4   2.0000      -0.623280       -16.9603
   5   2.0000      -0.552467       -15.0334
   6   2.0000      -0.524130       -14.2623
   7   2.0000      -0.443477       -12.0676
   8   2.0000      -0.376818       -10.2537
   9   0.0000       0.086632         2.3574
  10   0.0000       0.121011         3.2929
  11   0.0000       0.155166         4.2223
  12   0.0000       0.167048         4.5456
  13   0.0000       0.193183         5.2568

MULLIKEN ATOMIC CHARGES
-----------------------
   0 C :   -0.006686
   1 O :    0.000362
   2 H :   -0.000001
   3 H :    0.004130
   4 H :    0.000189
   5 H :   -0.000010
   6 C :   -0.185192
   7 O :   -0.441996
   8 H :    0.305718
   9 H :    0.106845
  10 H :    0.100827
  11 H :    0.115815
Sum of atomic charges:    0.0000000

LOEWDIN ATOMIC CHARGES
----------------------
   0 C :   -0.005188
   1 O :   -0.000077
   2 H :   -0.000086
   3 H :   -0.002377
   4 H :   -0.001072
   5 H :   -0.000041
   6 C :   -0.412949
   7 O :   -0.033856
   8 H :    0.153264
   9 H :    0.091000
  10 H :    0.097148
  11 H :    0.114234

  Mayer bond orders larger than 0.1
B(  6-C ,  7-O ) :   0.9922 B(  6-C ,  9-H ) :   0.9907 B(  6-C , 10-H ) :   0.9586
B(  6-C , 11-H ) :   0.9787 B(  7-O ,  8-H ) :   0.9155

Dispersion correction           -0.000192178
FINAL SINGLE POINT ENERGY      -115.725106734674

DIPOLE MOMENT
-------------
                                X             Y             Z
Electronic contribution:      1.44100      -0.62744       1.02625
Nuclear contribution   :     -1.49443       0.81119      -1.72903
                        -----------------------------------------
Total Dipole Moment    :     -0.05343       0.18375      -0.70278
                        -----------------------------------------
Magnitude (a.u.)       :      0.72837
Magnitude (Debye)      :      1.85137

Rotational constants in cm-1:     4.222899     0.879745     0.847130
Rotational constants in MHz : 126599.329634 26374.091812 25396.330328

                             ****ORCA TERMINATED NORMALLY****
TOTAL RUN TIME: 0 days 0 hours 0 minutes 58 seconds 641 msec
