                         Program Version 4.1.2  - RELEASE  -
|  1> #Run DFT-D3 single point of the dimer
|  2> ! wB97X-D3 def2-TZVP TIGHTSCF CHELPG PMODEL PAL8
|  3>
|  4> %base "12-17_DFT_AB"
|  5>
|  6> %scf
|  7> MaxIter 1000
|  8> end
|  9>
| 10> * xyz 0 1
| 11>   C                      7.783129             -4.327830            -2.139949
| 12>   O                      8.538829             -3.183352            -2.235793
| 13>   H                      9.186373             -3.113510            -1.593900
| 14>   H                      8.386808             -5.185219            -2.334048
| 15>   H                      7.505781             -4.489280            -1.123958
| 16>   H                      6.890016             -4.297037            -2.756172
| 17>   C                      10.636607            -5.951227            -0.680696
| 18>   O                      12.014493            -6.307966            -0.832241
| 19>   H                      12.111648            -7.221889            -0.534673
| 20>   H                      10.355463            -5.061298            -1.237537
| 21>   H                      10.000859            -6.814141            -0.913200
| 22>   H                      10.431188            -5.660022            0.343277
| 23> *
| 24>
| 25> #Run DFT-D3 single point of the molecule with dimer basis set
| 26> $new_job
| 27> %base "12-17_DFT_A"
| 28> ! wB97X-D3 def2-TZVP TIGHTSCF CHELPG PMODEL
| 29>
| 30> %scf
| 31> MaxIter 1000
| 32> end
| 33>
| 34> * xyz 0 1
| 35>   C                      7.783129             -4.327830            -2.139949
| 36>   O                      8.538829             -3.183352            -2.235793
| 37>   H                      9.186373             -3.113510            -1.593900
| 38>   H                      8.386808             -5.185219            -2.334048
| 39>   H                      7.505781             -4.489280            -1.123958
| 40>   H                      6.890016             -4.297037            -2.756172
| 41>   C                    : 10.636607            -5.951227            -0.680696
| 42>   O                    : 12.014493            -6.307966            -0.832241
| 43>   H                    : 12.111648            -7.221889            -0.534673
| 44>   H                    : 10.355463            -5.061298            -1.237537
| 45>   H                    : 10.000859            -6.814141            -0.913200
| 46>   H                    : 10.431188            -5.660022            0.343277
| 47> *
| 48>
| 49> #Run DFT-D3 single point of the particle with dimer basis set
| 50> $new_job
| 51> %base "12-17_DFT_B"
| 52> ! wB97X-D3 def2-TZVP TIGHTSCF CHELPG PMODEL
| 53>
| 54> %scf
| 55> MaxIter 1000
| 56> end
| 57>
| 58> * xyz 0 1
| 59>   C                    : 7.783129             -4.327830            -2.139949
| 60>   O                    : 8.538829             -3.183352            -2.235793
| 61>   H                    : 9.186373             -3.113510            -1.593900
| 62>   H                    : 8.386808             -5.185219            -2.334048
| 63>   H                    : 7.505781             -4.489280            -1.123958
| 64>   H                    : 6.890016             -4.297037            -2.756172
| 65>   C                      10.636607            -5.951227            -0.680696
| 66>   O                      12.014493            -6.307966            -0.832241
| 67>   H                      12.111648            -7.221889            -0.534673
| 68>   H                      10.355463            -5.061298            -1.237537
| 69>   H                      10.000859            -6.814141            -0.913200
| 70>   H                      10.431188            -5.660022            0.343277
| 71> *
| 72>
| 73>                          ****END OF INPUT****
 Total Charge           Charge          ....    0
 Multiplicity           Mult            ....    1
 Number of Electrons    NEL             ....   36
Dispersion correction           -0.001838068
FINAL SINGLE POINT ENERGY      -231.464194868221
Dispersion correction           -0.000211017
FINAL SINGLE POINT ENERGY      -115.730110981104

CARTESIAN COORDINATES (ANGSTROEM)
---------------------------------
  C      7.783129   -4.327830   -2.139949
  O      8.538829   -3.183352   -2.235793
  H      9.186373   -3.113510   -1.593900
  H      8.386808   -5.185219   -2.334048
  H      7.505781   -4.489280   -1.123958
  H      6.890016   -4.297037   -2.756172
  C     10.636607   -5.951227   -0.680696
  O     12.014493   -6.307966   -0.832241
  H     12.111648   -7.221889   -0.534673
  H     10.355463   -5.061298   -1.237537
  H     10.000859   -6.814141   -0.913200
  H     10.431188   -5.660022    0.343277

 Multiplicity           Mult            ....    1
 Number of Electrons    NEL             ....   18
 Basis Dimension        Dim             ....  172

ORBITAL ENERGIES
----------------

  NO   OCC          E(Eh)            E(eV)
   0   2.0000     -19.230102      -523.2777
   1   2.0000     -10.313208      -280.6367
   2   2.0000      -1.129669       -30.7399
   3   2.0000      -0.796920       -21.6853
   4   2.0000      -0.606598       -16.5064
   5   2.0000      -0.540615       -14.7109
   6   2.0000      -0.528007       -14.3678
   7   2.0000      -0.435961       -11.8631
   8   2.0000      -0.371527       -10.1098
   9   0.0000       0.086317         2.3488
  10   0.0000       0.114380         3.1124
  11   0.0000       0.158617         4.3162
  12   0.0000       0.162157         4.4125
  13   0.0000       0.192422         5.2361

MULLIKEN ATOMIC CHARGES
-----------------------
   0 C :    0.002835
   1 O :    0.000129
   2 H :   -0.000539
   3 H :   -0.005389
   4 H :    0.000110
   5 H :   -0.000134
   6 C :   -0.166888
   7 O :   -0.476884
   8 H :    0.315720
   9 H :    0.125832
  10 H :    0.105299
  11 H :    0.099911
Sum of atomic charges:   -0.0000000

LOEWDIN ATOMIC CHARGES
----------------------
   0 C :   -0.008086
   1 O :   -0.001143
   2 H :   -0.003817
   3 H :   -0.006447
   4 H :   -0.000427
   5 H :   -0.000055
   6 C :   -0.365847
   7 O :   -0.092867
   8 H :    0.171909
   9 H :    0.113733
  10 H :    0.099252
  11 H :    0.093796

  Mayer bond orders larger than 0.1
B(  6-C ,  7-O ) :   1.0082 B(  6-C ,  9-H ) :   0.9723 B(  6-C , 10-H ) :   0.9815
B(  6-C , 11-H ) :   0.9724 B(  7-O ,  8-H ) :   0.8987

Dispersion correction           -0.000242498
FINAL SINGLE POINT ENERGY      -115.734281433497

DIPOLE MOMENT
-------------
                                X             Y             Z
Electronic contribution:      1.78071      -0.30961      -0.33829
Nuclear contribution   :     -2.28253      -0.11487       0.59484
                        -----------------------------------------
Total Dipole Moment    :     -0.50182      -0.42448       0.25655
                        -----------------------------------------
Magnitude (a.u.)       :      0.70557
Magnitude (Debye)      :      1.79341

Rotational constants in cm-1:     4.338179     0.817814     0.781751
Rotational constants in MHz : 130055.347837 24517.449759 23436.291305

                             ****ORCA TERMINATED NORMALLY****
TOTAL RUN TIME: 0 days 0 hours 1 minutes 15 seconds 744 msec
