                         Program Version 4.1.2  - RELEASE  -
|  1> #Run DFT-D3 single point of the dimer
|  2> ! wB97X-D3 def2-TZVP TIGHTSCF CHELPG PMODEL PAL8
|  3>
|  4> %base "21-95_DFT_AB"
|  5>
|  6> %scf
|  7> MaxIter 1000
|  8> end
|  9>
| 10> * xyz 0 1
| 11>   C                      -9.935633            -1.088503            1.284899
| 12>   O                      -11.033869           -1.960237            1.345496
| 13>   H                      -11.887862           -1.623931            1.666152
| 14>   H                      -8.996411            -1.368978            1.817904
| 15>   H                      -9.676983            -0.896278            0.194077
| 16>   H                      -10.219109           -0.076535            1.690126
| 17>   C                      -8.129989            -1.571884            -2.225522
| 18>   O                      -8.222759            -0.794738            -3.392782
| 19>   H                      -9.121631            -0.441350            -3.413433
| 20>   H                      -9.139452            -1.760697            -1.839982
| 21>   H                      -7.694498            -2.543217            -2.506022
| 22>   H                      -7.554481            -1.152967            -1.411598
| 23> *
| 24>
| 25> #Run DFT-D3 single point of the molecule with dimer basis set
| 26> $new_job
| 27> %base "21-95_DFT_A"
| 28> ! wB97X-D3 def2-TZVP TIGHTSCF CHELPG PMODEL
| 29>
| 30> %scf
| 31> MaxIter 1000
| 32> end
| 33>
| 34> * xyz 0 1
| 35>   C                      -9.935633            -1.088503            1.284899
| 36>   O                      -11.033869           -1.960237            1.345496
| 37>   H                      -11.887862           -1.623931            1.666152
| 38>   H                      -8.996411            -1.368978            1.817904
| 39>   H                      -9.676983            -0.896278            0.194077
| 40>   H                      -10.219109           -0.076535            1.690126
| 41>   C                    : -8.129989            -1.571884            -2.225522
| 42>   O                    : -8.222759            -0.794738            -3.392782
| 43>   H                    : -9.121631            -0.441350            -3.413433
| 44>   H                    : -9.139452            -1.760697            -1.839982
| 45>   H                    : -7.694498            -2.543217            -2.506022
| 46>   H                    : -7.554481            -1.152967            -1.411598
| 47> *
| 48>
| 49> #Run DFT-D3 single point of the particle with dimer basis set
| 50> $new_job
| 51> %base "21-95_DFT_B"
| 52> ! wB97X-D3 def2-TZVP TIGHTSCF CHELPG PMODEL
| 53>
| 54> %scf
| 55> MaxIter 1000
| 56> end
| 57>
| 58> * xyz 0 1
| 59>   C                    : -9.935633            -1.088503            1.284899
| 60>   O                    : -11.033869           -1.960237            1.345496
| 61>   H                    : -11.887862           -1.623931            1.666152
| 62>   H                    : -8.996411            -1.368978            1.817904
| 63>   H                    : -9.676983            -0.896278            0.194077
| 64>   H                    : -10.219109           -0.076535            1.690126
| 65>   C                      -8.129989            -1.571884            -2.225522
| 66>   O                      -8.222759            -0.794738            -3.392782
| 67>   H                      -9.121631            -0.441350            -3.413433
| 68>   H                      -9.139452            -1.760697            -1.839982
| 69>   H                      -7.694498            -2.543217            -2.506022
| 70>   H                      -7.554481            -1.152967            -1.411598
| 71> *
| 72>
| 73>                          ****END OF INPUT****
 Total Charge           Charge          ....    0
 Multiplicity           Mult            ....    1
 Number of Electrons    NEL             ....   36
Dispersion correction           -0.001425726
FINAL SINGLE POINT ENERGY      -231.462946196994
Dispersion correction           -0.000280027
FINAL SINGLE POINT ENERGY      -115.728123677312

CARTESIAN COORDINATES (ANGSTROEM)
---------------------------------
  C     -9.935633   -1.088503    1.284899
  O    -11.033869   -1.960237    1.345496
  H    -11.887862   -1.623931    1.666152
  H     -8.996411   -1.368978    1.817904
  H     -9.676983   -0.896278    0.194077
  H    -10.219109   -0.076535    1.690126
  C     -8.129989   -1.571884   -2.225522
  O     -8.222759   -0.794738   -3.392782
  H     -9.121631   -0.441350   -3.413433
  H     -9.139452   -1.760697   -1.839982
  H     -7.694498   -2.543217   -2.506022
  H     -7.554481   -1.152967   -1.411598

 Multiplicity           Mult            ....    1
 Number of Electrons    NEL             ....   18
 Basis Dimension        Dim             ....  172

ORBITAL ENERGIES
----------------

  NO   OCC          E(Eh)            E(eV)
   0   2.0000     -19.230572      -523.2905
   1   2.0000     -10.311876      -280.6004
   2   2.0000      -1.138987       -30.9934
   3   2.0000      -0.793479       -21.5916
   4   2.0000      -0.613711       -16.6999
   5   2.0000      -0.543019       -14.7763
   6   2.0000      -0.528475       -14.3805
   7   2.0000      -0.431882       -11.7521
   8   2.0000      -0.373909       -10.1746
   9   0.0000       0.081398         2.2149
  10   0.0000       0.114096         3.1047
  11   0.0000       0.147413         4.0113
  12   0.0000       0.166303         4.5253
  13   0.0000       0.185174         5.0388

MULLIKEN ATOMIC CHARGES
-----------------------
   0 C :    0.000061
   1 O :    0.000057
   2 H :   -0.000002
   3 H :    0.000098
   4 H :   -0.002328
   5 H :   -0.000209
   6 C :   -0.150591
   7 O :   -0.468295
   8 H :    0.318399
   9 H :    0.095389
  10 H :    0.105806
  11 H :    0.101614
Sum of atomic charges:   -0.0000000

LOEWDIN ATOMIC CHARGES
----------------------
   0 C :   -0.003119
   1 O :   -0.000025
   2 H :   -0.000003
   3 H :   -0.000127
   4 H :   -0.006734
   5 H :   -0.000024
   6 C :   -0.388329
   7 O :   -0.073979
   8 H :    0.175052
   9 H :    0.099043
  10 H :    0.104041
  11 H :    0.094206

  Mayer bond orders larger than 0.1
B(  6-C ,  7-O ) :   1.0181 B(  6-C ,  9-H ) :   0.9936 B(  6-C , 10-H ) :   0.9757
B(  6-C , 11-H ) :   0.9681 B(  7-O ,  8-H ) :   0.9000

Dispersion correction           -0.000239609
FINAL SINGLE POINT ENERGY      -115.734269237435

DIPOLE MOMENT
-------------
                                X             Y             Z
Electronic contribution:      0.07950       1.05223      -1.52286
Nuclear contribution   :     -0.63840      -1.13135       1.95810
                        -----------------------------------------
Total Dipole Moment    :     -0.55891      -0.07912       0.43523
                        -----------------------------------------
Magnitude (a.u.)       :      0.71279
Magnitude (Debye)      :      1.81176

Rotational constants in cm-1:     4.293416     0.841810     0.809764
Rotational constants in MHz : 128713.379947 25236.826116 24276.117717

                             ****ORCA TERMINATED NORMALLY****
TOTAL RUN TIME: 0 days 0 hours 0 minutes 45 seconds 645 msec
