                         Program Version 4.1.2  - RELEASE  -
|  1> #Run DFT-D3 single point of the dimer
|  2> ! wB97X-D3 def2-TZVP TIGHTSCF CHELPG PMODEL PAL8
|  3>
|  4> %base "19-215_DFT_AB"
|  5>
|  6> %scf
|  7> MaxIter 1000
|  8> end
|  9>
| 10> * xyz 0 1
| 11>   C                      -2.210150            4.309729             2.179350
| 12>   O                      -2.099163            3.474252             3.360581
| 13>   H                      -2.770289            2.741984             3.380769
| 14>   H                      -1.626261            3.910436             1.350685
| 15>   H                      -3.312350            4.480102             1.869655
| 16>   H                      -1.674488            5.251024             2.293240
| 17>   C                      -4.309679            0.139881             3.274753
| 18>   O                      -3.997063            1.453591             2.977763
| 19>   H                      -4.850942            1.963425             2.857807
| 20>   H                      -4.736021            -0.485051            2.500253
| 21>   H                      -3.409156            -0.389718            3.671393
| 22>   H                      -5.119480            0.125753             4.057112
| 23> *
| 24>
| 25> #Run DFT-D3 single point of the molecule with dimer basis set
| 26> $new_job
| 27> %base "19-215_DFT_A"
| 28> ! wB97X-D3 def2-TZVP TIGHTSCF CHELPG PMODEL
| 29>
| 30> %scf
| 31> MaxIter 1000
| 32> end
| 33>
| 34> * xyz 0 1
| 35>   C                      -2.210150            4.309729             2.179350
| 36>   O                      -2.099163            3.474252             3.360581
| 37>   H                      -2.770289            2.741984             3.380769
| 38>   H                      -1.626261            3.910436             1.350685
| 39>   H                      -3.312350            4.480102             1.869655
| 40>   H                      -1.674488            5.251024             2.293240
| 41>   C                    : -4.309679            0.139881             3.274753
| 42>   O                    : -3.997063            1.453591             2.977763
| 43>   H                    : -4.850942            1.963425             2.857807
| 44>   H                    : -4.736021            -0.485051            2.500253
| 45>   H                    : -3.409156            -0.389718            3.671393
| 46>   H                    : -5.119480            0.125753             4.057112
| 47> *
| 48>
| 49> #Run DFT-D3 single point of the particle with dimer basis set
| 50> $new_job
| 51> %base "19-215_DFT_B"
| 52> ! wB97X-D3 def2-TZVP TIGHTSCF CHELPG PMODEL
| 53>
| 54> %scf
| 55> MaxIter 1000
| 56> end
| 57>
| 58> * xyz 0 1
| 59>   C                    : -2.210150            4.309729             2.179350
| 60>   O                    : -2.099163            3.474252             3.360581
| 61>   H                    : -2.770289            2.741984             3.380769
| 62>   H                    : -1.626261            3.910436             1.350685
| 63>   H                    : -3.312350            4.480102             1.869655
| 64>   H                    : -1.674488            5.251024             2.293240
| 65>   C                      -4.309679            0.139881             3.274753
| 66>   O                      -3.997063            1.453591             2.977763
| 67>   H                      -4.850942            1.963425             2.857807
| 68>   H                      -4.736021            -0.485051            2.500253
| 69>   H                      -3.409156            -0.389718            3.671393
| 70>   H                      -5.119480            0.125753             4.057112
| 71> *
| 72>
| 73>                          ****END OF INPUT****
 Total Charge           Charge          ....    0
 Multiplicity           Mult            ....    1
 Number of Electrons    NEL             ....   36
Dispersion correction           -0.001668806
FINAL SINGLE POINT ENERGY      -231.467109658844
Dispersion correction           -0.000290635
FINAL SINGLE POINT ENERGY      -115.728258933056

CARTESIAN COORDINATES (ANGSTROEM)
---------------------------------
  C     -2.210150    4.309729    2.179350
  O     -2.099163    3.474252    3.360581
  H     -2.770289    2.741984    3.380769
  H     -1.626261    3.910436    1.350685
  H     -3.312350    4.480102    1.869655
  H     -1.674488    5.251024    2.293240
  C     -4.309679    0.139881    3.274753
  O     -3.997063    1.453591    2.977763
  H     -4.850942    1.963425    2.857807
  H     -4.736021   -0.485051    2.500253
  H     -3.409156   -0.389718    3.671393
  H     -5.119480    0.125753    4.057112

 Multiplicity           Mult            ....    1
 Number of Electrons    NEL             ....   18
 Basis Dimension        Dim             ....  172

ORBITAL ENERGIES
----------------

  NO   OCC          E(Eh)            E(eV)
   0   2.0000     -19.237784      -523.4867
   1   2.0000     -10.315430      -280.6971
   2   2.0000      -1.141245       -31.0548
   3   2.0000      -0.788914       -21.4674
   4   2.0000      -0.617751       -16.8099
   5   2.0000      -0.537722       -14.6322
   6   2.0000      -0.529620       -14.4117
   7   2.0000      -0.432046       -11.7566
   8   2.0000      -0.370104       -10.0710
   9   0.0000       0.093918         2.5556
  10   0.0000       0.120621         3.2823
  11   0.0000       0.151554         4.1240
  12   0.0000       0.184633         5.0241
  13   0.0000       0.202368         5.5067

MULLIKEN ATOMIC CHARGES
-----------------------
   0 C :    0.000716
   1 O :    0.002737
   2 H :   -0.015216
   3 H :   -0.000553
   4 H :   -0.001113
   5 H :   -0.000190
   6 C :   -0.161782
   7 O :   -0.456770
   8 H :    0.321385
   9 H :    0.101234
  10 H :    0.120038
  11 H :    0.089514
Sum of atomic charges:   -0.0000000

LOEWDIN ATOMIC CHARGES
----------------------
   0 C :   -0.004292
   1 O :   -0.006220
   2 H :   -0.054102
   3 H :   -0.000207
   4 H :   -0.000643
   5 H :   -0.000073
   6 C :   -0.419065
   7 O :   -0.015109
   8 H :    0.199595
   9 H :    0.089314
  10 H :    0.113707
  11 H :    0.097095

  Mayer bond orders larger than 0.1
B(  6-C ,  7-O ) :   1.0021 B(  6-C ,  9-H ) :   0.9600 B(  6-C , 10-H ) :   0.9767
B(  6-C , 11-H ) :   0.9860 B(  7-O ,  8-H ) :   0.8853

Dispersion correction           -0.000243180
FINAL SINGLE POINT ENERGY      -115.731825352794

DIPOLE MOMENT
-------------
                                X             Y             Z
Electronic contribution:      0.64867       1.74090      -0.51490
Nuclear contribution   :     -1.30220      -1.91509       0.54409
                        -----------------------------------------
Total Dipole Moment    :     -0.65353      -0.17419       0.02919
                        -----------------------------------------
Magnitude (a.u.)       :      0.67698
Magnitude (Debye)      :      1.72073

Rotational constants in cm-1:     4.226976     0.855951     0.811874
Rotational constants in MHz : 126721.546674 25660.763738 24339.356826

                             ****ORCA TERMINATED NORMALLY****
TOTAL RUN TIME: 0 days 0 hours 0 minutes 50 seconds 196 msec
