                         Program Version 4.1.2  - RELEASE  -
|  1> #Run DFT-D3 single point of the dimer
|  2> ! wB97X-D3 def2-TZVP TIGHTSCF CHELPG PMODEL PAL8
|  3>
|  4> %base "22-157_DFT_AB"
|  5>
|  6> %scf
|  7> MaxIter 1000
|  8> end
|  9>
| 10> * xyz 0 1
| 11>   C                      -6.210408            7.186349             -6.347533
| 12>   O                      -6.337280            8.254765             -7.246706
| 13>   H                      -6.561061            7.790520             -8.089679
| 14>   H                      -6.987174            6.395478             -6.449828
| 15>   H                      -5.291814            6.642553             -6.432559
| 16>   H                      -6.203094            7.509204             -5.298534
| 17>   C                      -8.142469            10.884034            -8.858114
| 18>   O                      -7.232965            11.107994            -7.759848
| 19>   H                      -6.892286            10.269751            -7.515333
| 20>   H                      -9.143728            11.358740            -8.624990
| 21>   H                      -7.690766            11.232019            -9.853560
| 22>   H                      -8.381424            9.827021             -9.023874
| 23> *
| 24>
| 25> #Run DFT-D3 single point of the molecule with dimer basis set
| 26> $new_job
| 27> %base "22-157_DFT_A"
| 28> ! wB97X-D3 def2-TZVP TIGHTSCF CHELPG PMODEL
| 29>
| 30> %scf
| 31> MaxIter 1000
| 32> end
| 33>
| 34> * xyz 0 1
| 35>   C                      -6.210408            7.186349             -6.347533
| 36>   O                      -6.337280            8.254765             -7.246706
| 37>   H                      -6.561061            7.790520             -8.089679
| 38>   H                      -6.987174            6.395478             -6.449828
| 39>   H                      -5.291814            6.642553             -6.432559
| 40>   H                      -6.203094            7.509204             -5.298534
| 41>   C                    : -8.142469            10.884034            -8.858114
| 42>   O                    : -7.232965            11.107994            -7.759848
| 43>   H                    : -6.892286            10.269751            -7.515333
| 44>   H                    : -9.143728            11.358740            -8.624990
| 45>   H                    : -7.690766            11.232019            -9.853560
| 46>   H                    : -8.381424            9.827021             -9.023874
| 47> *
| 48>
| 49> #Run DFT-D3 single point of the particle with dimer basis set
| 50> $new_job
| 51> %base "22-157_DFT_B"
| 52> ! wB97X-D3 def2-TZVP TIGHTSCF CHELPG PMODEL
| 53>
| 54> %scf
| 55> MaxIter 1000
| 56> end
| 57>
| 58> * xyz 0 1
| 59>   C                    : -6.210408            7.186349             -6.347533
| 60>   O                    : -6.337280            8.254765             -7.246706
| 61>   H                    : -6.561061            7.790520             -8.089679
| 62>   H                    : -6.987174            6.395478             -6.449828
| 63>   H                    : -5.291814            6.642553             -6.432559
| 64>   H                    : -6.203094            7.509204             -5.298534
| 65>   C                      -8.142469            10.884034            -8.858114
| 66>   O                      -7.232965            11.107994            -7.759848
| 67>   H                      -6.892286            10.269751            -7.515333
| 68>   H                      -9.143728            11.358740            -8.624990
| 69>   H                      -7.690766            11.232019            -9.853560
| 70>   H                      -8.381424            9.827021             -9.023874
| 71> *
| 72>
| 73>                          ****END OF INPUT****
 Total Charge           Charge          ....    0
 Multiplicity           Mult            ....    1
 Number of Electrons    NEL             ....   36
Dispersion correction           -0.001613304
FINAL SINGLE POINT ENERGY      -231.470769919813
Dispersion correction           -0.000238040
FINAL SINGLE POINT ENERGY      -115.732863928805

CARTESIAN COORDINATES (ANGSTROEM)
---------------------------------
  C     -6.210408    7.186349   -6.347533
  O     -6.337280    8.254765   -7.246706
  H     -6.561061    7.790520   -8.089679
  H     -6.987174    6.395478   -6.449828
  H     -5.291814    6.642553   -6.432559
  H     -6.203094    7.509204   -5.298534
  C     -8.142469   10.884034   -8.858114
  O     -7.232965   11.107994   -7.759848
  H     -6.892286   10.269751   -7.515333
  H     -9.143728   11.358740   -8.624990
  H     -7.690766   11.232019   -9.853560
  H     -8.381424    9.827021   -9.023874

 Multiplicity           Mult            ....    1
 Number of Electrons    NEL             ....   18
 Basis Dimension        Dim             ....  172

ORBITAL ENERGIES
----------------

  NO   OCC          E(Eh)            E(eV)
   0   2.0000     -19.231037      -523.3031
   1   2.0000     -10.326254      -280.9916
   2   2.0000      -1.134330       -30.8667
   3   2.0000      -0.791586       -21.5401
   4   2.0000      -0.611464       -16.6388
   5   2.0000      -0.536093       -14.5878
   6   2.0000      -0.514552       -14.0017
   7   2.0000      -0.436336       -11.8733
   8   2.0000      -0.377183       -10.2637
   9   0.0000       0.069653         1.8954
  10   0.0000       0.124632         3.3914
  11   0.0000       0.146670         3.9911
  12   0.0000       0.169166         4.6032
  13   0.0000       0.190274         5.1776

MULLIKEN ATOMIC CHARGES
-----------------------
   0 C :   -0.001186
   1 O :   -0.003679
   2 H :   -0.000095
   3 H :    0.000009
   4 H :    0.000022
   5 H :    0.000062
   6 C :   -0.176411
   7 O :   -0.465655
   8 H :    0.313226
   9 H :    0.117579
  10 H :    0.106714
  11 H :    0.109415
Sum of atomic charges:   -0.0000000

LOEWDIN ATOMIC CHARGES
----------------------
   0 C :   -0.001076
   1 O :   -0.012960
   2 H :   -0.001571
   3 H :   -0.000019
   4 H :   -0.000030
   5 H :   -0.000053
   6 C :   -0.375067
   7 O :   -0.079023
   8 H :    0.155969
   9 H :    0.110669
  10 H :    0.107813
  11 H :    0.095348

  Mayer bond orders larger than 0.1
B(  6-C ,  7-O ) :   0.9953 B(  6-C ,  9-H ) :   0.9729 B(  6-C , 10-H ) :   0.9697
B(  6-C , 11-H ) :   0.9759 B(  7-O ,  8-H ) :   0.9126

Dispersion correction           -0.000275272
FINAL SINGLE POINT ENERGY      -115.731334882537

DIPOLE MOMENT
-------------
                                X             Y             Z
Electronic contribution:      1.16332       0.43913       1.44050
Nuclear contribution   :     -1.31906      -1.11356      -1.70986
                        -----------------------------------------
Total Dipole Moment    :     -0.15574      -0.67443      -0.26936
                        -----------------------------------------
Magnitude (a.u.)       :      0.74274
Magnitude (Debye)      :      1.88789

Rotational constants in cm-1:     4.152106     0.790362     0.775091
Rotational constants in MHz : 124477.011899 23694.448242 23236.653816

                             ****ORCA TERMINATED NORMALLY****
TOTAL RUN TIME: 0 days 0 hours 1 minutes 8 seconds 264 msec
