                         Program Version 4.1.2  - RELEASE  -
|  1> #Run DFT-D3 single point of the dimer
|  2> ! wB97X-D3 def2-TZVP TIGHTSCF CHELPG PMODEL PAL8
|  3>
|  4> %base "21-156_DFT_AB"
|  5>
|  6> %scf
|  7> MaxIter 1000
|  8> end
|  9>
| 10> * xyz 0 1
| 11>   C                      6.810272             -5.639102            -2.893015
| 12>   O                      7.400597             -6.879874            -2.672565
| 13>   H                      8.240190             -6.888730            -2.212595
| 14>   H                      6.553186             -5.246679            -1.891201
| 15>   H                      7.419295             -4.864427            -3.395195
| 16>   H                      5.896662             -5.592998            -3.515592
| 17>   C                      6.868651             -8.194354            1.781744
| 18>   O                      6.654157             -7.770481            0.421571
| 19>   H                      6.873863             -6.813883            0.366752
| 20>   H                      7.880758             -8.538717            1.956021
| 21>   H                      6.747013             -7.441927            2.505200
| 22>   H                      6.150630             -9.074778            1.958401
| 23> *
| 24>
| 25> #Run DFT-D3 single point of the molecule with dimer basis set
| 26> $new_job
| 27> %base "21-156_DFT_A"
| 28> ! wB97X-D3 def2-TZVP TIGHTSCF CHELPG PMODEL
| 29>
| 30> %scf
| 31> MaxIter 1000
| 32> end
| 33>
| 34> * xyz 0 1
| 35>   C                      6.810272             -5.639102            -2.893015
| 36>   O                      7.400597             -6.879874            -2.672565
| 37>   H                      8.240190             -6.888730            -2.212595
| 38>   H                      6.553186             -5.246679            -1.891201
| 39>   H                      7.419295             -4.864427            -3.395195
| 40>   H                      5.896662             -5.592998            -3.515592
| 41>   C                    : 6.868651             -8.194354            1.781744
| 42>   O                    : 6.654157             -7.770481            0.421571
| 43>   H                    : 6.873863             -6.813883            0.366752
| 44>   H                    : 7.880758             -8.538717            1.956021
| 45>   H                    : 6.747013             -7.441927            2.505200
| 46>   H                    : 6.150630             -9.074778            1.958401
| 47> *
| 48>
| 49> #Run DFT-D3 single point of the particle with dimer basis set
| 50> $new_job
| 51> %base "21-156_DFT_B"
| 52> ! wB97X-D3 def2-TZVP TIGHTSCF CHELPG PMODEL
| 53>
| 54> %scf
| 55> MaxIter 1000
| 56> end
| 57>
| 58> * xyz 0 1
| 59>   C                    : 6.810272             -5.639102            -2.893015
| 60>   O                    : 7.400597             -6.879874            -2.672565
| 61>   H                    : 8.240190             -6.888730            -2.212595
| 62>   H                    : 6.553186             -5.246679            -1.891201
| 63>   H                    : 7.419295             -4.864427            -3.395195
| 64>   H                    : 5.896662             -5.592998            -3.515592
| 65>   C                      6.868651             -8.194354            1.781744
| 66>   O                      6.654157             -7.770481            0.421571
| 67>   H                      6.873863             -6.813883            0.366752
| 68>   H                      7.880758             -8.538717            1.956021
| 69>   H                      6.747013             -7.441927            2.505200
| 70>   H                      6.150630             -9.074778            1.958401
| 71> *
| 72>
| 73>                          ****END OF INPUT****
 Total Charge           Charge          ....    0
 Multiplicity           Mult            ....    1
 Number of Electrons    NEL             ....   36
Dispersion correction           -0.001463292
FINAL SINGLE POINT ENERGY      -231.458556690908
Dispersion correction           -0.000265913
FINAL SINGLE POINT ENERGY      -115.728592991902

CARTESIAN COORDINATES (ANGSTROEM)
---------------------------------
  C      6.810272   -5.639102   -2.893015
  O      7.400597   -6.879874   -2.672565
  H      8.240190   -6.888730   -2.212595
  H      6.553186   -5.246679   -1.891201
  H      7.419295   -4.864427   -3.395195
  H      5.896662   -5.592998   -3.515592
  C      6.868651   -8.194354    1.781744
  O      6.654157   -7.770481    0.421571
  H      6.873863   -6.813883    0.366752
  H      7.880758   -8.538717    1.956021
  H      6.747013   -7.441927    2.505200
  H      6.150630   -9.074778    1.958401

 Multiplicity           Mult            ....    1
 Number of Electrons    NEL             ....   18
 Basis Dimension        Dim             ....  172

ORBITAL ENERGIES
----------------

  NO   OCC          E(Eh)            E(eV)
   0   2.0000     -19.233603      -523.3729
   1   2.0000     -10.315159      -280.6897
   2   2.0000      -1.124517       -30.5997
   3   2.0000      -0.795758       -21.6537
   4   2.0000      -0.611591       -16.6422
   5   2.0000      -0.533396       -14.5144
   6   2.0000      -0.516266       -14.0483
   7   2.0000      -0.441175       -12.0050
   8   2.0000      -0.373216       -10.1557
   9   0.0000       0.082759         2.2520
  10   0.0000       0.123434         3.3588
  11   0.0000       0.150987         4.1086
  12   0.0000       0.172148         4.6844
  13   0.0000       0.190371         5.1803

MULLIKEN ATOMIC CHARGES
-----------------------
   0 C :   -0.000453
   1 O :    0.000021
   2 H :   -0.002982
   3 H :   -0.000339
   4 H :    0.000014
   5 H :    0.000032
   6 C :   -0.166665
   7 O :   -0.475764
   8 H :    0.315939
   9 H :    0.101975
  10 H :    0.111515
  11 H :    0.116706
Sum of atomic charges:   -0.0000000

LOEWDIN ATOMIC CHARGES
----------------------
   0 C :   -0.001300
   1 O :   -0.001959
   2 H :   -0.002683
   3 H :   -0.000899
   4 H :   -0.000018
   5 H :   -0.000008
   6 C :   -0.368221
   7 O :   -0.102775
   8 H :    0.180466
   9 H :    0.092529
  10 H :    0.085103
  11 H :    0.119765

  Mayer bond orders larger than 0.1
B(  6-C ,  7-O ) :   1.0021 B(  6-C ,  9-H ) :   0.9725 B(  6-C , 10-H ) :   0.9760
B(  6-C , 11-H ) :   0.9766 B(  7-O ,  8-H ) :   0.8956

Dispersion correction           -0.000259878
FINAL SINGLE POINT ENERGY      -115.731376136493

DIPOLE MOMENT
-------------
                                X             Y             Z
Electronic contribution:     -0.31622       0.49999      -1.71727
Nuclear contribution   :      0.54595      -0.04677       2.25941
                        -----------------------------------------
Total Dipole Moment    :      0.22973       0.45322       0.54214
                        -----------------------------------------
Magnitude (a.u.)       :      0.74303
Magnitude (Debye)      :      1.88864

Rotational constants in cm-1:     4.258944     0.808493     0.770138
Rotational constants in MHz : 127679.933871 24238.008757 23088.153709

                             ****ORCA TERMINATED NORMALLY****
TOTAL RUN TIME: 0 days 0 hours 1 minutes 3 seconds 592 msec
