                         Program Version 4.1.2  - RELEASE  -
|  1> #Run DFT-D3 single point of the dimer
|  2> ! wB97X-D3 def2-TZVP TIGHTSCF CHELPG PMODEL PAL8
|  3>
|  4> %base "6-60_DFT_AB"
|  5>
|  6> %scf
|  7> MaxIter 1000
|  8> end
|  9>
| 10> * xyz 0 1
| 11>   C                      -6.106169            -7.139025            5.478536
| 12>   O                      -7.250673            -6.358448            5.904261
| 13>   H                      -7.580413            -5.854131            5.158850
| 14>   H                      -5.225424            -6.537199            5.228452
| 15>   H                      -5.853161            -7.888103            6.266709
| 16>   H                      -6.381485            -7.683977            4.536477
| 17>   C                      -10.150982           -6.172238            9.585934
| 18>   O                      -9.228055            -7.141119            9.989197
| 19>   H                      -9.704365            -7.871113            10.389564
| 20>   H                      -9.798425            -5.525775            8.758411
| 21>   H                      -11.006873           -6.741988            9.200142
| 22>   H                      -10.556566           -5.575769            10.407005
| 23> *
| 24>
| 25> #Run DFT-D3 single point of the molecule with dimer basis set
| 26> $new_job
| 27> %base "6-60_DFT_A"
| 28> ! wB97X-D3 def2-TZVP TIGHTSCF CHELPG PMODEL
| 29>
| 30> %scf
| 31> MaxIter 1000
| 32> end
| 33>
| 34> * xyz 0 1
| 35>   C                      -6.106169            -7.139025            5.478536
| 36>   O                      -7.250673            -6.358448            5.904261
| 37>   H                      -7.580413            -5.854131            5.158850
| 38>   H                      -5.225424            -6.537199            5.228452
| 39>   H                      -5.853161            -7.888103            6.266709
| 40>   H                      -6.381485            -7.683977            4.536477
| 41>   C                    : -10.150982           -6.172238            9.585934
| 42>   O                    : -9.228055            -7.141119            9.989197
| 43>   H                    : -9.704365            -7.871113            10.389564
| 44>   H                    : -9.798425            -5.525775            8.758411
| 45>   H                    : -11.006873           -6.741988            9.200142
| 46>   H                    : -10.556566           -5.575769            10.407005
| 47> *
| 48>
| 49> #Run DFT-D3 single point of the particle with dimer basis set
| 50> $new_job
| 51> %base "6-60_DFT_B"
| 52> ! wB97X-D3 def2-TZVP TIGHTSCF CHELPG PMODEL
| 53>
| 54> %scf
| 55> MaxIter 1000
| 56> end
| 57>
| 58> * xyz 0 1
| 59>   C                    : -6.106169            -7.139025            5.478536
| 60>   O                    : -7.250673            -6.358448            5.904261
| 61>   H                    : -7.580413            -5.854131            5.158850
| 62>   H                    : -5.225424            -6.537199            5.228452
| 63>   H                    : -5.853161            -7.888103            6.266709
| 64>   H                    : -6.381485            -7.683977            4.536477
| 65>   C                      -10.150982           -6.172238            9.585934
| 66>   O                      -9.228055            -7.141119            9.989197
| 67>   H                      -9.704365            -7.871113            10.389564
| 68>   H                      -9.798425            -5.525775            8.758411
| 69>   H                      -11.006873           -6.741988            9.200142
| 70>   H                      -10.556566           -5.575769            10.407005
| 71> *
| 72>
| 73>                          ****END OF INPUT****
 Total Charge           Charge          ....    0
 Multiplicity           Mult            ....    1
 Number of Electrons    NEL             ....   36
Dispersion correction           -0.000735887
FINAL SINGLE POINT ENERGY      -231.467085309109
Dispersion correction           -0.000261243
FINAL SINGLE POINT ENERGY      -115.734789986908

CARTESIAN COORDINATES (ANGSTROEM)
---------------------------------
  C     -6.106169   -7.139025    5.478536
  O     -7.250673   -6.358448    5.904261
  H     -7.580413   -5.854131    5.158850
  H     -5.225424   -6.537199    5.228452
  H     -5.853161   -7.888103    6.266709
  H     -6.381485   -7.683977    4.536477
  C    -10.150982   -6.172238    9.585934
  O     -9.228055   -7.141119    9.989197
  H     -9.704365   -7.871113   10.389564
  H     -9.798425   -5.525775    8.758411
  H    -11.006873   -6.741988    9.200142
  H    -10.556566   -5.575769   10.407005

 Multiplicity           Mult            ....    1
 Number of Electrons    NEL             ....   18
 Basis Dimension        Dim             ....  172

ORBITAL ENERGIES
----------------

  NO   OCC          E(Eh)            E(eV)
   0   2.0000     -19.228627      -523.2376
   1   2.0000     -10.313690      -280.6498
   2   2.0000      -1.141327       -31.0571
   3   2.0000      -0.792985       -21.5782
   4   2.0000      -0.614845       -16.7308
   5   2.0000      -0.542184       -14.7536
   6   2.0000      -0.533615       -14.5204
   7   2.0000      -0.427771       -11.6402
   8   2.0000      -0.371073       -10.0974
   9   0.0000       0.090102         2.4518
  10   0.0000       0.112751         3.0681
  11   0.0000       0.148692         4.0461
  12   0.0000       0.170501         4.6396
  13   0.0000       0.192776         5.2457

MULLIKEN ATOMIC CHARGES
-----------------------
   0 C :   -0.000023
   1 O :   -0.000003
   2 H :   -0.000016
   3 H :   -0.000000
   4 H :   -0.000039
   5 H :    0.000001
   6 C :   -0.163938
   7 O :   -0.474751
   8 H :    0.319006
   9 H :    0.122506
  10 H :    0.097016
  11 H :    0.100241
Sum of atomic charges:   -0.0000000

LOEWDIN ATOMIC CHARGES
----------------------
   0 C :   -0.000023
   1 O :   -0.000045
   2 H :   -0.000017
   3 H :   -0.000000
   4 H :   -0.000016
   5 H :   -0.000000
   6 C :   -0.400192
   7 O :   -0.069233
   8 H :    0.170991
   9 H :    0.110285
  10 H :    0.096124
  11 H :    0.092125

  Mayer bond orders larger than 0.1
B(  6-C ,  7-O ) :   0.9976 B(  6-C ,  9-H ) :   0.9692 B(  6-C , 10-H ) :   0.9953
B(  6-C , 11-H ) :   0.9684 B(  7-O ,  8-H ) :   0.8963

Dispersion correction           -0.000229014
FINAL SINGLE POINT ENERGY      -115.732771643074

DIPOLE MOMENT
-------------
                                X             Y             Z
Electronic contribution:      1.42418      -1.07338       0.49877
Nuclear contribution   :     -2.10145       0.96758      -0.41544
                        -----------------------------------------
Total Dipole Moment    :     -0.67727      -0.10581       0.08333
                        -----------------------------------------
Magnitude (a.u.)       :      0.69053
Magnitude (Debye)      :      1.75519

Rotational constants in cm-1:     4.302269     0.846264     0.813525
Rotational constants in MHz : 128978.773398 25370.343949 24388.879051

                             ****ORCA TERMINATED NORMALLY****
TOTAL RUN TIME: 0 days 0 hours 0 minutes 54 seconds 230 msec
