                         Program Version 4.1.2  - RELEASE  -
|  1> #Run DFT-D3 single point of the dimer
|  2> ! wB97X-D3 def2-TZVP TIGHTSCF CHELPG PMODEL PAL8
|  3>
|  4> %base "2-5_DFT_AB"
|  5>
|  6> %scf
|  7> MaxIter 1000
|  8> end
|  9>
| 10> * xyz 0 1
| 11>   C                      8.949076             -5.978823            1.374421
| 12>   O                      8.061541             -5.195316            2.119433
| 13>   H                      7.149420             -5.531842            2.087189
| 14>   H                      8.545516             -6.842409            0.887766
| 15>   H                      9.373425             -5.345801            0.537664
| 16>   H                      9.797121             -6.359743            1.900939
| 17>   C                      11.134302            -4.747291            4.475778
| 18>   O                      10.370783            -5.897481            4.603069
| 19>   H                      10.715092            -6.399807            5.381798
| 20>   H                      12.126118            -4.943626            4.106023
| 21>   H                      10.619054            -4.073949            3.763484
| 22>   H                      11.296532            -4.160645            5.340873
| 23> *
| 24>
| 25> #Run DFT-D3 single point of the molecule with dimer basis set
| 26> $new_job
| 27> %base "2-5_DFT_A"
| 28> ! wB97X-D3 def2-TZVP TIGHTSCF CHELPG PMODEL
| 29>
| 30> %scf
| 31> MaxIter 1000
| 32> end
| 33>
| 34> * xyz 0 1
| 35>   C                      8.949076             -5.978823            1.374421
| 36>   O                      8.061541             -5.195316            2.119433
| 37>   H                      7.149420             -5.531842            2.087189
| 38>   H                      8.545516             -6.842409            0.887766
| 39>   H                      9.373425             -5.345801            0.537664
| 40>   H                      9.797121             -6.359743            1.900939
| 41>   C                    : 11.134302            -4.747291            4.475778
| 42>   O                    : 10.370783            -5.897481            4.603069
| 43>   H                    : 10.715092            -6.399807            5.381798
| 44>   H                    : 12.126118            -4.943626            4.106023
| 45>   H                    : 10.619054            -4.073949            3.763484
| 46>   H                    : 11.296532            -4.160645            5.340873
| 47> *
| 48>
| 49> #Run DFT-D3 single point of the particle with dimer basis set
| 50> $new_job
| 51> %base "2-5_DFT_B"
| 52> ! wB97X-D3 def2-TZVP TIGHTSCF CHELPG PMODEL
| 53>
| 54> %scf
| 55> MaxIter 1000
| 56> end
| 57>
| 58> * xyz 0 1
| 59>   C                    : 8.949076             -5.978823            1.374421
| 60>   O                    : 8.061541             -5.195316            2.119433
| 61>   H                    : 7.149420             -5.531842            2.087189
| 62>   H                    : 8.545516             -6.842409            0.887766
| 63>   H                    : 9.373425             -5.345801            0.537664
| 64>   H                    : 9.797121             -6.359743            1.900939
| 65>   C                      11.134302            -4.747291            4.475778
| 66>   O                      10.370783            -5.897481            4.603069
| 67>   H                      10.715092            -6.399807            5.381798
| 68>   H                      12.126118            -4.943626            4.106023
| 69>   H                      10.619054            -4.073949            3.763484
| 70>   H                      11.296532            -4.160645            5.340873
| 71> *
| 72>
| 73>                          ****END OF INPUT****
 Total Charge           Charge          ....    0
 Multiplicity           Mult            ....    1
 Number of Electrons    NEL             ....   36
Dispersion correction           -0.001783726
FINAL SINGLE POINT ENERGY      -231.465777085762
Dispersion correction           -0.000265437
FINAL SINGLE POINT ENERGY      -115.731608355044

CARTESIAN COORDINATES (ANGSTROEM)
---------------------------------
  C      8.949076   -5.978823    1.374421
  O      8.061541   -5.195316    2.119433
  H      7.149420   -5.531842    2.087189
  H      8.545516   -6.842409    0.887766
  H      9.373425   -5.345801    0.537664
  H      9.797121   -6.359743    1.900939
  C     11.134302   -4.747291    4.475778
  O     10.370783   -5.897481    4.603069
  H     10.715092   -6.399807    5.381798
  H     12.126118   -4.943626    4.106023
  H     10.619054   -4.073949    3.763484
  H     11.296532   -4.160645    5.340873

 Multiplicity           Mult            ....    1
 Number of Electrons    NEL             ....   18
 Basis Dimension        Dim             ....  172

ORBITAL ENERGIES
----------------

  NO   OCC          E(Eh)            E(eV)
   0   2.0000     -19.235255      -523.4179
   1   2.0000     -10.305267      -280.4206
   2   2.0000      -1.141141       -31.0520
   3   2.0000      -0.796396       -21.6710
   4   2.0000      -0.619822       -16.8662
   5   2.0000      -0.543651       -14.7935
   6   2.0000      -0.525293       -14.2939
   7   2.0000      -0.434689       -11.8285
   8   2.0000      -0.373274       -10.1573
   9   0.0000       0.094510         2.5718
  10   0.0000       0.119671         3.2564
  11   0.0000       0.153618         4.1802
  12   0.0000       0.175289         4.7699
  13   0.0000       0.190949         5.1960

MULLIKEN ATOMIC CHARGES
-----------------------
   0 C :    0.002455
   1 O :   -0.000416
   2 H :   -0.000054
   3 H :    0.000032
   4 H :   -0.000270
   5 H :   -0.005296
   6 C :   -0.160056
   7 O :   -0.465879
   8 H :    0.314104
   9 H :    0.095745
  10 H :    0.113890
  11 H :    0.105744
Sum of atomic charges:    0.0000000

LOEWDIN ATOMIC CHARGES
----------------------
   0 C :   -0.004539
   1 O :   -0.000647
   2 H :   -0.000075
   3 H :   -0.000020
   4 H :   -0.000062
   5 H :   -0.005159
   6 C :   -0.409320
   7 O :   -0.057558
   8 H :    0.188050
   9 H :    0.089622
  10 H :    0.113247
  11 H :    0.086461

  Mayer bond orders larger than 0.1
B(  6-C ,  7-O ) :   1.0013 B(  6-C ,  9-H ) :   0.9791 B(  6-C , 10-H ) :   0.9773
B(  6-C , 11-H ) :   0.9702 B(  7-O ,  8-H ) :   0.8937

Dispersion correction           -0.000235822
FINAL SINGLE POINT ENERGY      -115.733579483997

DIPOLE MOMENT
-------------
                                X             Y             Z
Electronic contribution:     -1.09982      -1.53082       0.13834
Nuclear contribution   :      1.60500       1.66402       0.32722
                        -----------------------------------------
Total Dipole Moment    :      0.50517       0.13320       0.46556
                        -----------------------------------------
Magnitude (a.u.)       :      0.69978
Magnitude (Debye)      :      1.77870

Rotational constants in cm-1:     4.424611     0.856017     0.817867
Rotational constants in MHz : 132646.496694 25662.742488 24519.043002

                             ****ORCA TERMINATED NORMALLY****
TOTAL RUN TIME: 0 days 0 hours 5 minutes 54 seconds 77 msec
