                         Program Version 4.1.2  - RELEASE  -
|  1> #Run DFT-D3 single point of the dimer
|  2> ! wB97X-D3 def2-TZVP TIGHTSCF CHELPG PMODEL PAL8
|  3>
|  4> %base "17-218_DFT_AB"
|  5>
|  6> %scf
|  7> MaxIter 1000
|  8> end
|  9>
| 10> * xyz 0 1
| 11>   C                      0.539936             -8.319207            10.050165
| 12>   O                      -0.709120            -7.893374            9.487627
| 13>   H                      -0.594225            -7.503628            8.625924
| 14>   H                      0.839312             -9.222515            9.537556
| 15>   H                      1.417461             -7.656808            9.884785
| 16>   H                      0.427320             -8.634937            11.067587
| 17>   C                      -3.626366            -6.290258            6.324457
| 18>   O                      -2.965998            -7.565938            6.476582
| 19>   H                      -2.346531            -7.423228            7.173815
| 20>   H                      -4.513852            -6.271197            5.650974
| 21>   H                      -4.012185            -5.860393            7.272476
| 22>   H                      -2.994141            -5.572336            5.841538
| 23> *
| 24>
| 25> #Run DFT-D3 single point of the molecule with dimer basis set
| 26> $new_job
| 27> %base "17-218_DFT_A"
| 28> ! wB97X-D3 def2-TZVP TIGHTSCF CHELPG PMODEL
| 29>
| 30> %scf
| 31> MaxIter 1000
| 32> end
| 33>
| 34> * xyz 0 1
| 35>   C                      0.539936             -8.319207            10.050165
| 36>   O                      -0.709120            -7.893374            9.487627
| 37>   H                      -0.594225            -7.503628            8.625924
| 38>   H                      0.839312             -9.222515            9.537556
| 39>   H                      1.417461             -7.656808            9.884785
| 40>   H                      0.427320             -8.634937            11.067587
| 41>   C                    : -3.626366            -6.290258            6.324457
| 42>   O                    : -2.965998            -7.565938            6.476582
| 43>   H                    : -2.346531            -7.423228            7.173815
| 44>   H                    : -4.513852            -6.271197            5.650974
| 45>   H                    : -4.012185            -5.860393            7.272476
| 46>   H                    : -2.994141            -5.572336            5.841538
| 47> *
| 48>
| 49> #Run DFT-D3 single point of the particle with dimer basis set
| 50> $new_job
| 51> %base "17-218_DFT_B"
| 52> ! wB97X-D3 def2-TZVP TIGHTSCF CHELPG PMODEL
| 53>
| 54> %scf
| 55> MaxIter 1000
| 56> end
| 57>
| 58> * xyz 0 1
| 59>   C                    : 0.539936             -8.319207            10.050165
| 60>   O                    : -0.709120            -7.893374            9.487627
| 61>   H                    : -0.594225            -7.503628            8.625924
| 62>   H                    : 0.839312             -9.222515            9.537556
| 63>   H                    : 1.417461             -7.656808            9.884785
| 64>   H                    : 0.427320             -8.634937            11.067587
| 65>   C                      -3.626366            -6.290258            6.324457
| 66>   O                      -2.965998            -7.565938            6.476582
| 67>   H                      -2.346531            -7.423228            7.173815
| 68>   H                      -4.513852            -6.271197            5.650974
| 69>   H                      -4.012185            -5.860393            7.272476
| 70>   H                      -2.994141            -5.572336            5.841538
| 71> *
| 72>
| 73>                          ****END OF INPUT****
 Total Charge           Charge          ....    0
 Multiplicity           Mult            ....    1
 Number of Electrons    NEL             ....   36
Dispersion correction           -0.001159949
FINAL SINGLE POINT ENERGY      -231.462399373441
Dispersion correction           -0.000260969
FINAL SINGLE POINT ENERGY      -115.731964180426

CARTESIAN COORDINATES (ANGSTROEM)
---------------------------------
  C      0.539936   -8.319207   10.050165
  O     -0.709120   -7.893374    9.487627
  H     -0.594225   -7.503628    8.625924
  H      0.839312   -9.222515    9.537556
  H      1.417461   -7.656808    9.884785
  H      0.427320   -8.634937   11.067587
  C     -3.626366   -6.290258    6.324457
  O     -2.965998   -7.565938    6.476582
  H     -2.346531   -7.423228    7.173815
  H     -4.513852   -6.271197    5.650974
  H     -4.012185   -5.860393    7.272476
  H     -2.994141   -5.572336    5.841538

 Multiplicity           Mult            ....    1
 Number of Electrons    NEL             ....   18
 Basis Dimension        Dim             ....  172

ORBITAL ENERGIES
----------------

  NO   OCC          E(Eh)            E(eV)
   0   2.0000     -19.233783      -523.3778
   1   2.0000     -10.317941      -280.7655
   2   2.0000      -1.134581       -30.8735
   3   2.0000      -0.798601       -21.7310
   4   2.0000      -0.606379       -16.5004
   5   2.0000      -0.541107       -14.7243
   6   2.0000      -0.524520       -14.2729
   7   2.0000      -0.435324       -11.8458
   8   2.0000      -0.378834       -10.3086
   9   0.0000       0.076695         2.0870
  10   0.0000       0.117805         3.2056
  11   0.0000       0.144693         3.9373
  12   0.0000       0.188913         5.1406
  13   0.0000       0.191761         5.2181

MULLIKEN ATOMIC CHARGES
-----------------------
   0 C :    0.000108
   1 O :   -0.000187
   2 H :   -0.001572
   3 H :   -0.000015
   4 H :   -0.000013
   5 H :    0.000003
   6 C :   -0.178886
   7 O :   -0.466202
   8 H :    0.313999
   9 H :    0.118100
  10 H :    0.103329
  11 H :    0.111335
Sum of atomic charges:   -0.0000000

LOEWDIN ATOMIC CHARGES
----------------------
   0 C :   -0.000048
   1 O :   -0.001030
   2 H :   -0.003742
   3 H :   -0.000001
   4 H :   -0.000001
   5 H :   -0.000001
   6 C :   -0.373218
   7 O :   -0.083642
   8 H :    0.159521
   9 H :    0.112496
  10 H :    0.098714
  11 H :    0.090953

  Mayer bond orders larger than 0.1
B(  6-C ,  7-O ) :   0.9953 B(  6-C ,  9-H ) :   0.9734 B(  6-C , 10-H ) :   0.9761
B(  6-C , 11-H ) :   0.9757 B(  7-O ,  8-H ) :   0.9079

Dispersion correction           -0.000261754
FINAL SINGLE POINT ENERGY      -115.731462664622

DIPOLE MOMENT
-------------
                                X             Y             Z
Electronic contribution:      0.82475      -1.79116       0.12034
Nuclear contribution   :     -0.70893       2.40866       0.24146
                        -----------------------------------------
Total Dipole Moment    :      0.11582       0.61750       0.36180
                        -----------------------------------------
Magnitude (a.u.)       :      0.72500
Magnitude (Debye)      :      1.84280

Rotational constants in cm-1:     4.435320     0.792014     0.766948
Rotational constants in MHz : 132967.553895 23743.973767 22992.528132

                             ****ORCA TERMINATED NORMALLY****
TOTAL RUN TIME: 0 days 0 hours 1 minutes 2 seconds 199 msec
