                         Program Version 4.1.2  - RELEASE  -
|  1> #Run DFT-D3 single point of the dimer
|  2> ! wB97X-D3 def2-TZVP TIGHTSCF CHELPG PMODEL PAL8
|  3>
|  4> %base "11-65_DFT_AB"
|  5>
|  6> %scf
|  7> MaxIter 1000
|  8> end
|  9>
| 10> * xyz 0 1
| 11>   C                      0.029205             -3.305085            5.575801
| 12>   O                      -1.152025            -2.596991            5.492510
| 13>   H                      -0.980307            -2.042697            4.669758
| 14>   H                      0.889800             -2.641096            5.935441
| 15>   H                      -0.058726            -4.169142            6.203153
| 16>   H                      0.260555             -3.587206            4.550461
| 17>   C                      4.321066             -3.521203            6.219270
| 18>   O                      4.283638             -3.174605            7.540469
| 19>   H                      5.007427             -2.577754            7.806071
| 20>   H                      3.381811             -4.169405            5.944546
| 21>   H                      4.438452             -2.680389            5.550083
| 22>   H                      5.129554             -4.352500            6.075508
| 23> *
| 24>
| 25> #Run DFT-D3 single point of the molecule with dimer basis set
| 26> $new_job
| 27> %base "11-65_DFT_A"
| 28> ! wB97X-D3 def2-TZVP TIGHTSCF CHELPG PMODEL
| 29>
| 30> %scf
| 31> MaxIter 1000
| 32> end
| 33>
| 34> * xyz 0 1
| 35>   C                      0.029205             -3.305085            5.575801
| 36>   O                      -1.152025            -2.596991            5.492510
| 37>   H                      -0.980307            -2.042697            4.669758
| 38>   H                      0.889800             -2.641096            5.935441
| 39>   H                      -0.058726            -4.169142            6.203153
| 40>   H                      0.260555             -3.587206            4.550461
| 41>   C                    : 4.321066             -3.521203            6.219270
| 42>   O                    : 4.283638             -3.174605            7.540469
| 43>   H                    : 5.007427             -2.577754            7.806071
| 44>   H                    : 3.381811             -4.169405            5.944546
| 45>   H                    : 4.438452             -2.680389            5.550083
| 46>   H                    : 5.129554             -4.352500            6.075508
| 47> *
| 48>
| 49> #Run DFT-D3 single point of the particle with dimer basis set
| 50> $new_job
| 51> %base "11-65_DFT_B"
| 52> ! wB97X-D3 def2-TZVP TIGHTSCF CHELPG PMODEL
| 53>
| 54> %scf
| 55> MaxIter 1000
| 56> end
| 57>
| 58> * xyz 0 1
| 59>   C                    : 0.029205             -3.305085            5.575801
| 60>   O                    : -1.152025            -2.596991            5.492510
| 61>   H                    : -0.980307            -2.042697            4.669758
| 62>   H                    : 0.889800             -2.641096            5.935441
| 63>   H                    : -0.058726            -4.169142            6.203153
| 64>   H                    : 0.260555             -3.587206            4.550461
| 65>   C                      4.321066             -3.521203            6.219270
| 66>   O                      4.283638             -3.174605            7.540469
| 67>   H                      5.007427             -2.577754            7.806071
| 68>   H                      3.381811             -4.169405            5.944546
| 69>   H                      4.438452             -2.680389            5.550083
| 70>   H                      5.129554             -4.352500            6.075508
| 71> *
| 72>
| 73>                          ****END OF INPUT****
 Total Charge           Charge          ....    0
 Multiplicity           Mult            ....    1
 Number of Electrons    NEL             ....   36
Dispersion correction           -0.001150118
FINAL SINGLE POINT ENERGY      -231.454456708819
Dispersion correction           -0.000203093
FINAL SINGLE POINT ENERGY      -115.727884055936

CARTESIAN COORDINATES (ANGSTROEM)
---------------------------------
  C      0.029205   -3.305085    5.575801
  O     -1.152025   -2.596991    5.492510
  H     -0.980307   -2.042697    4.669758
  H      0.889800   -2.641096    5.935441
  H     -0.058726   -4.169142    6.203153
  H      0.260555   -3.587206    4.550461
  C      4.321066   -3.521203    6.219270
  O      4.283638   -3.174605    7.540469
  H      5.007427   -2.577754    7.806071
  H      3.381811   -4.169405    5.944546
  H      4.438452   -2.680389    5.550083
  H      5.129554   -4.352500    6.075508

 Multiplicity           Mult            ....    1
 Number of Electrons    NEL             ....   18
 Basis Dimension        Dim             ....  172

ORBITAL ENERGIES
----------------

  NO   OCC          E(Eh)            E(eV)
   0   2.0000     -19.231260      -523.3092
   1   2.0000     -10.324121      -280.9336
   2   2.0000      -1.147254       -31.2184
   3   2.0000      -0.785787       -21.3824
   4   2.0000      -0.617248       -16.7962
   5   2.0000      -0.548700       -14.9309
   6   2.0000      -0.523517       -14.2456
   7   2.0000      -0.419110       -11.4046
   8   2.0000      -0.366262        -9.9665
   9   0.0000       0.088519         2.4087
  10   0.0000       0.115381         3.1397
  11   0.0000       0.146554         3.9879
  12   0.0000       0.170919         4.6509
  13   0.0000       0.192273         5.2320

MULLIKEN ATOMIC CHARGES
-----------------------
   0 C :   -0.001145
   1 O :    0.000037
   2 H :    0.000019
   3 H :    0.001539
   4 H :   -0.000214
   5 H :    0.000083
   6 C :   -0.159516
   7 O :   -0.471887
   8 H :    0.321146
   9 H :    0.114361
  10 H :    0.106101
  11 H :    0.089476
Sum of atomic charges:    0.0000000

LOEWDIN ATOMIC CHARGES
----------------------
   0 C :   -0.002024
   1 O :   -0.000011
   2 H :   -0.000002
   3 H :   -0.000799
   4 H :   -0.000176
   5 H :   -0.000199
   6 C :   -0.438799
   7 O :   -0.051328
   8 H :    0.180678
   9 H :    0.122603
  10 H :    0.089248
  11 H :    0.100810

  Mayer bond orders larger than 0.1
B(  6-C ,  7-O ) :   1.0040 B(  6-C ,  9-H ) :   0.9676 B(  6-C , 10-H ) :   0.9724
B(  6-C , 11-H ) :   0.9779 B(  7-O ,  8-H ) :   0.8872

Dispersion correction           -0.000253533
FINAL SINGLE POINT ENERGY      -115.725943758328

DIPOLE MOMENT
-------------
                                X             Y             Z
Electronic contribution:     -0.15543       0.67985       1.75803
Nuclear contribution   :      0.62147      -0.39708      -2.05673
                        -----------------------------------------
Total Dipole Moment    :      0.46604       0.28277      -0.29870
                        -----------------------------------------
Magnitude (a.u.)       :      0.62159
Magnitude (Debye)      :      1.57996

Rotational constants in cm-1:     4.071609     0.859110     0.829744
Rotational constants in MHz : 122063.776924 25755.481467 24875.096982

                             ****ORCA TERMINATED NORMALLY****
TOTAL RUN TIME: 0 days 0 hours 1 minutes 11 seconds 297 msec
