                         Program Version 4.1.2  - RELEASE  -
|  1> #Run DFT-D3 single point of the dimer
|  2> ! wB97X-D3 def2-TZVP TIGHTSCF CHELPG PMODEL PAL8
|  3>
|  4> %base "22-62_DFT_AB"
|  5>
|  6> %scf
|  7> MaxIter 1000
|  8> end
|  9>
| 10> * xyz 0 1
| 11>   C                      7.094991             -5.874388            4.295036
| 12>   O                      6.607568             -5.115187            5.413430
| 13>   H                      6.014298             -4.411971            5.145993
| 14>   H                      6.600203             -5.667700            3.315345
| 15>   H                      8.165961             -5.827261            4.147364
| 16>   H                      6.868536             -6.907309            4.499651
| 17>   C                      9.741924             -3.352049            1.536750
| 18>   O                      9.436478             -2.727637            2.823499
| 19>   H                      8.636189             -2.138844            2.743913
| 20>   H                      10.170041            -4.362015            1.642687
| 21>   H                      8.852915             -3.598148            0.882711
| 22>   H                      10.507776            -2.851678            0.903736
| 23> *
| 24>
| 25> #Run DFT-D3 single point of the molecule with dimer basis set
| 26> $new_job
| 27> %base "22-62_DFT_A"
| 28> ! wB97X-D3 def2-TZVP TIGHTSCF CHELPG PMODEL
| 29>
| 30> %scf
| 31> MaxIter 1000
| 32> end
| 33>
| 34> * xyz 0 1
| 35>   C                      7.094991             -5.874388            4.295036
| 36>   O                      6.607568             -5.115187            5.413430
| 37>   H                      6.014298             -4.411971            5.145993
| 38>   H                      6.600203             -5.667700            3.315345
| 39>   H                      8.165961             -5.827261            4.147364
| 40>   H                      6.868536             -6.907309            4.499651
| 41>   C                    : 9.741924             -3.352049            1.536750
| 42>   O                    : 9.436478             -2.727637            2.823499
| 43>   H                    : 8.636189             -2.138844            2.743913
| 44>   H                    : 10.170041            -4.362015            1.642687
| 45>   H                    : 8.852915             -3.598148            0.882711
| 46>   H                    : 10.507776            -2.851678            0.903736
| 47> *
| 48>
| 49> #Run DFT-D3 single point of the particle with dimer basis set
| 50> $new_job
| 51> %base "22-62_DFT_B"
| 52> ! wB97X-D3 def2-TZVP TIGHTSCF CHELPG PMODEL
| 53>
| 54> %scf
| 55> MaxIter 1000
| 56> end
| 57>
| 58> * xyz 0 1
| 59>   C                    : 7.094991             -5.874388            4.295036
| 60>   O                    : 6.607568             -5.115187            5.413430
| 61>   H                    : 6.014298             -4.411971            5.145993
| 62>   H                    : 6.600203             -5.667700            3.315345
| 63>   H                    : 8.165961             -5.827261            4.147364
| 64>   H                    : 6.868536             -6.907309            4.499651
| 65>   C                      9.741924             -3.352049            1.536750
| 66>   O                      9.436478             -2.727637            2.823499
| 67>   H                      8.636189             -2.138844            2.743913
| 68>   H                      10.170041            -4.362015            1.642687
| 69>   H                      8.852915             -3.598148            0.882711
| 70>   H                      10.507776            -2.851678            0.903736
| 71> *
| 72>
| 73>                          ****END OF INPUT****
 Total Charge           Charge          ....    0
 Multiplicity           Mult            ....    1
 Number of Electrons    NEL             ....   36
Dispersion correction           -0.001279559
FINAL SINGLE POINT ENERGY      -231.460696974917
Dispersion correction           -0.000278292
FINAL SINGLE POINT ENERGY      -115.733022749789

CARTESIAN COORDINATES (ANGSTROEM)
---------------------------------
  C      7.094991   -5.874388    4.295036
  O      6.607568   -5.115187    5.413430
  H      6.014298   -4.411971    5.145993
  H      6.600203   -5.667700    3.315345
  H      8.165961   -5.827261    4.147364
  H      6.868536   -6.907309    4.499651
  C      9.741924   -3.352049    1.536750
  O      9.436478   -2.727637    2.823499
  H      8.636189   -2.138844    2.743913
  H     10.170041   -4.362015    1.642687
  H      8.852915   -3.598148    0.882711
  H     10.507776   -2.851678    0.903736

 Multiplicity           Mult            ....    1
 Number of Electrons    NEL             ....   18
 Basis Dimension        Dim             ....  172

ORBITAL ENERGIES
----------------

  NO   OCC          E(Eh)            E(eV)
   0   2.0000     -19.239894      -523.5441
   1   2.0000     -10.324442      -280.9423
   2   2.0000      -1.116695       -30.3868
   3   2.0000      -0.795102       -21.6358
   4   2.0000      -0.600778       -16.3480
   5   2.0000      -0.529951       -14.4207
   6   2.0000      -0.518417       -14.1068
   7   2.0000      -0.429450       -11.6859
   8   2.0000      -0.378617       -10.3027
   9   0.0000       0.084843         2.3087
  10   0.0000       0.119518         3.2523
  11   0.0000       0.135967         3.6998
  12   0.0000       0.168434         4.5833
  13   0.0000       0.185845         5.0571

MULLIKEN ATOMIC CHARGES
-----------------------
   0 C :   -0.002025
   1 O :    0.000185
   2 H :   -0.000061
   3 H :    0.000035
   4 H :   -0.000503
   5 H :   -0.000156
   6 C :   -0.193918
   7 O :   -0.480664
   8 H :    0.322916
   9 H :    0.124937
  10 H :    0.112956
  11 H :    0.116298
Sum of atomic charges:   -0.0000000

LOEWDIN ATOMIC CHARGES
----------------------
   0 C :   -0.001891
   1 O :   -0.000023
   2 H :   -0.000075
   3 H :   -0.000121
   4 H :   -0.000743
   5 H :   -0.000059
   6 C :   -0.376650
   7 O :   -0.121393
   8 H :    0.188553
   9 H :    0.107848
  10 H :    0.104309
  11 H :    0.100242

  Mayer bond orders larger than 0.1
B(  6-C ,  7-O ) :   1.0016 B(  6-C ,  9-H ) :   0.9741 B(  6-C , 10-H ) :   0.9735
B(  6-C , 11-H ) :   0.9683 B(  7-O ,  8-H ) :   0.8903

Dispersion correction           -0.000316790
FINAL SINGLE POINT ENERGY      -115.727529606546

DIPOLE MOMENT
-------------
                                X             Y             Z
Electronic contribution:     -0.29258       0.87785       1.79668
Nuclear contribution   :     -0.08628      -0.79038      -2.38020
                        -----------------------------------------
Total Dipole Moment    :     -0.37887       0.08747      -0.58352
                        -----------------------------------------
Magnitude (a.u.)       :      0.70120
Magnitude (Debye)      :      1.78232

Rotational constants in cm-1:     4.359614     0.759114     0.736274
Rotational constants in MHz : 130697.935579 22757.660588 22072.930959

                             ****ORCA TERMINATED NORMALLY****
TOTAL RUN TIME: 0 days 0 hours 0 minutes 57 seconds 138 msec
