                         Program Version 4.1.2  - RELEASE  -
|  1> #Run DFT-D3 single point of the dimer
|  2> ! wB97X-D3 def2-TZVP TIGHTSCF CHELPG PMODEL PAL8
|  3>
|  4> %base "3-42_DFT_AB"
|  5>
|  6> %scf
|  7> MaxIter 1000
|  8> end
|  9>
| 10> * xyz 0 1
| 11>   C                      -3.289817            3.839313             -6.482746
| 12>   O                      -4.185576            4.250906             -7.462851
| 13>   H                      -4.707539            3.455339             -7.545012
| 14>   H                      -3.645948            3.191517             -5.758856
| 15>   H                      -2.405513            3.242529             -6.901142
| 16>   H                      -2.662676            4.632680             -6.020365
| 17>   C                      -3.888145            1.871441             -9.901667
| 18>   O                      -2.887328            1.541876             -10.844331
| 19>   H                      -2.057649            1.745419             -10.528720
| 20>   H                      -4.007914            2.958215             -9.898934
| 21>   H                      -4.899281            1.516543             -10.079027
| 22>   H                      -3.612215            1.511664             -8.924497
| 23> *
| 24>
| 25> #Run DFT-D3 single point of the molecule with dimer basis set
| 26> $new_job
| 27> %base "3-42_DFT_A"
| 28> ! wB97X-D3 def2-TZVP TIGHTSCF CHELPG PMODEL
| 29>
| 30> %scf
| 31> MaxIter 1000
| 32> end
| 33>
| 34> * xyz 0 1
| 35>   C                      -3.289817            3.839313             -6.482746
| 36>   O                      -4.185576            4.250906             -7.462851
| 37>   H                      -4.707539            3.455339             -7.545012
| 38>   H                      -3.645948            3.191517             -5.758856
| 39>   H                      -2.405513            3.242529             -6.901142
| 40>   H                      -2.662676            4.632680             -6.020365
| 41>   C                    : -3.888145            1.871441             -9.901667
| 42>   O                    : -2.887328            1.541876             -10.844331
| 43>   H                    : -2.057649            1.745419             -10.528720
| 44>   H                    : -4.007914            2.958215             -9.898934
| 45>   H                    : -4.899281            1.516543             -10.079027
| 46>   H                    : -3.612215            1.511664             -8.924497
| 47> *
| 48>
| 49> #Run DFT-D3 single point of the particle with dimer basis set
| 50> $new_job
| 51> %base "3-42_DFT_B"
| 52> ! wB97X-D3 def2-TZVP TIGHTSCF CHELPG PMODEL
| 53>
| 54> %scf
| 55> MaxIter 1000
| 56> end
| 57>
| 58> * xyz 0 1
| 59>   C                    : -3.289817            3.839313             -6.482746
| 60>   O                    : -4.185576            4.250906             -7.462851
| 61>   H                    : -4.707539            3.455339             -7.545012
| 62>   H                    : -3.645948            3.191517             -5.758856
| 63>   H                    : -2.405513            3.242529             -6.901142
| 64>   H                    : -2.662676            4.632680             -6.020365
| 65>   C                      -3.888145            1.871441             -9.901667
| 66>   O                      -2.887328            1.541876             -10.844331
| 67>   H                      -2.057649            1.745419             -10.528720
| 68>   H                      -4.007914            2.958215             -9.898934
| 69>   H                      -4.899281            1.516543             -10.079027
| 70>   H                      -3.612215            1.511664             -8.924497
| 71> *
| 72>
| 73>                          ****END OF INPUT****
 Total Charge           Charge          ....    0
 Multiplicity           Mult            ....    1
 Number of Electrons    NEL             ....   36
Dispersion correction           -0.001870276
FINAL SINGLE POINT ENERGY      -231.454799641321
Dispersion correction           -0.000235394
FINAL SINGLE POINT ENERGY      -115.724188441022

CARTESIAN COORDINATES (ANGSTROEM)
---------------------------------
  C     -3.289817    3.839313   -6.482746
  O     -4.185576    4.250906   -7.462851
  H     -4.707539    3.455339   -7.545012
  H     -3.645948    3.191517   -5.758856
  H     -2.405513    3.242529   -6.901142
  H     -2.662676    4.632680   -6.020365
  C     -3.888145    1.871441   -9.901667
  O     -2.887328    1.541876  -10.844331
  H     -2.057649    1.745419  -10.528720
  H     -4.007914    2.958215   -9.898934
  H     -4.899281    1.516543  -10.079027
  H     -3.612215    1.511664   -8.924497

 Multiplicity           Mult            ....    1
 Number of Electrons    NEL             ....   18
 Basis Dimension        Dim             ....  172

ORBITAL ENERGIES
----------------

  NO   OCC          E(Eh)            E(eV)
   0   2.0000     -19.223388      -523.0950
   1   2.0000     -10.312127      -280.6072
   2   2.0000      -1.143860       -31.1260
   3   2.0000      -0.804532       -21.8924
   4   2.0000      -0.616317       -16.7708
   5   2.0000      -0.546462       -14.8700
   6   2.0000      -0.534884       -14.5549
   7   2.0000      -0.426491       -11.6054
   8   2.0000      -0.373799       -10.1716
   9   0.0000       0.080231         2.1832
  10   0.0000       0.123159         3.3513
  11   0.0000       0.144851         3.9416
  12   0.0000       0.173549         4.7225
  13   0.0000       0.188676         5.1341

MULLIKEN ATOMIC CHARGES
-----------------------
   0 C :   -0.001546
   1 O :   -0.001107
   2 H :   -0.000172
   3 H :    0.000200
   4 H :    0.000380
   5 H :   -0.000002
   6 C :   -0.151623
   7 O :   -0.474012
   8 H :    0.308266
   9 H :    0.100899
  10 H :    0.119740
  11 H :    0.098978
Sum of atomic charges:    0.0000000

LOEWDIN ATOMIC CHARGES
----------------------
   0 C :   -0.002923
   1 O :   -0.003508
   2 H :   -0.004697
   3 H :   -0.000072
   4 H :   -0.000863
   5 H :   -0.000025
   6 C :   -0.371930
   7 O :   -0.052451
   8 H :    0.135618
   9 H :    0.098859
  10 H :    0.107750
  11 H :    0.094240

  Mayer bond orders larger than 0.1
B(  6-C ,  7-O ) :   0.9900 B(  6-C ,  9-H ) :   0.9837 B(  6-C , 10-H ) :   0.9684
B(  6-C , 11-H ) :   0.9839 B(  7-O ,  8-H ) :   0.9077

Dispersion correction           -0.000236832
FINAL SINGLE POINT ENERGY      -115.729951807362

DIPOLE MOMENT
-------------
                                X             Y             Z
Electronic contribution:      1.19049      -0.55669      -1.30472
Nuclear contribution   :     -1.06830       0.81679       1.90320
                        -----------------------------------------
Total Dipole Moment    :      0.12218       0.26010       0.59848
                        -----------------------------------------
Magnitude (a.u.)       :      0.66390
Magnitude (Debye)      :      1.68749

Rotational constants in cm-1:     4.575326     0.822413     0.802220
Rotational constants in MHz : 137164.836013 24655.324936 24049.944614

                             ****ORCA TERMINATED NORMALLY****
TOTAL RUN TIME: 0 days 0 hours 6 minutes 23 seconds 917 msec
