                         Program Version 4.1.2  - RELEASE  -
|  1> #Run DFT-D3 single point of the dimer
|  2> ! wB97X-D3 def2-TZVP TIGHTSCF CHELPG PMODEL PAL8
|  3>
|  4> %base "22-14_DFT_AB"
|  5>
|  6> %scf
|  7> MaxIter 1000
|  8> end
|  9>
| 10> * xyz 0 1
| 11>   C                      -0.754698            -4.429643            3.939378
| 12>   O                      -1.196798            -4.428082            5.254249
| 13>   H                      -0.395699            -4.752719            5.779728
| 14>   H                      -0.383757            -5.340087            3.635676
| 15>   H                      -1.507620            -4.118996            3.190048
| 16>   H                      0.031200             -3.762485            3.769299
| 17>   C                      -3.152113            -1.685180            5.511687
| 18>   O                      -3.578452            -2.644021            4.578806
| 19>   H                      -2.831220            -3.224825            4.420491
| 20>   H                      -2.231712            -1.127083            5.128433
| 21>   H                      -3.887088            -1.022022            5.889255
| 22>   H                      -2.718246            -2.180419            6.352590
| 23> *
| 24>
| 25> #Run DFT-D3 single point of the molecule with dimer basis set
| 26> $new_job
| 27> %base "22-14_DFT_A"
| 28> ! wB97X-D3 def2-TZVP TIGHTSCF CHELPG PMODEL
| 29>
| 30> %scf
| 31> MaxIter 1000
| 32> end
| 33>
| 34> * xyz 0 1
| 35>   C                      -0.754698            -4.429643            3.939378
| 36>   O                      -1.196798            -4.428082            5.254249
| 37>   H                      -0.395699            -4.752719            5.779728
| 38>   H                      -0.383757            -5.340087            3.635676
| 39>   H                      -1.507620            -4.118996            3.190048
| 40>   H                      0.031200             -3.762485            3.769299
| 41>   C                    : -3.152113            -1.685180            5.511687
| 42>   O                    : -3.578452            -2.644021            4.578806
| 43>   H                    : -2.831220            -3.224825            4.420491
| 44>   H                    : -2.231712            -1.127083            5.128433
| 45>   H                    : -3.887088            -1.022022            5.889255
| 46>   H                    : -2.718246            -2.180419            6.352590
| 47> *
| 48>
| 49> #Run DFT-D3 single point of the particle with dimer basis set
| 50> $new_job
| 51> %base "22-14_DFT_B"
| 52> ! wB97X-D3 def2-TZVP TIGHTSCF CHELPG PMODEL
| 53>
| 54> %scf
| 55> MaxIter 1000
| 56> end
| 57>
| 58> * xyz 0 1
| 59>   C                    : -0.754698            -4.429643            3.939378
| 60>   O                    : -1.196798            -4.428082            5.254249
| 61>   H                    : -0.395699            -4.752719            5.779728
| 62>   H                    : -0.383757            -5.340087            3.635676
| 63>   H                    : -1.507620            -4.118996            3.190048
| 64>   H                    : 0.031200             -3.762485            3.769299
| 65>   C                      -3.152113            -1.685180            5.511687
| 66>   O                      -3.578452            -2.644021            4.578806
| 67>   H                      -2.831220            -3.224825            4.420491
| 68>   H                      -2.231712            -1.127083            5.128433
| 69>   H                      -3.887088            -1.022022            5.889255
| 70>   H                      -2.718246            -2.180419            6.352590
| 71> *
| 72>
| 73>                          ****END OF INPUT****
 Total Charge           Charge          ....    0
 Multiplicity           Mult            ....    1
 Number of Electrons    NEL             ....   36
Dispersion correction           -0.002051216
FINAL SINGLE POINT ENERGY      -231.460408891533
Dispersion correction           -0.000214268
FINAL SINGLE POINT ENERGY      -115.726594191024

CARTESIAN COORDINATES (ANGSTROEM)
---------------------------------
  C     -0.754698   -4.429643    3.939378
  O     -1.196798   -4.428082    5.254249
  H     -0.395699   -4.752719    5.779728
  H     -0.383757   -5.340087    3.635676
  H     -1.507620   -4.118996    3.190048
  H      0.031200   -3.762485    3.769299
  C     -3.152113   -1.685180    5.511687
  O     -3.578452   -2.644021    4.578806
  H     -2.831220   -3.224825    4.420491
  H     -2.231712   -1.127083    5.128433
  H     -3.887088   -1.022022    5.889255
  H     -2.718246   -2.180419    6.352590

 Multiplicity           Mult            ....    1
 Number of Electrons    NEL             ....   18
 Basis Dimension        Dim             ....  172

ORBITAL ENERGIES
----------------

  NO   OCC          E(Eh)            E(eV)
   0   2.0000     -19.232082      -523.3315
   1   2.0000     -10.311962      -280.6028
   2   2.0000      -1.141566       -31.0636
   3   2.0000      -0.797733       -21.7074
   4   2.0000      -0.616829       -16.7848
   5   2.0000      -0.542570       -14.7641
   6   2.0000      -0.530541       -14.4367
   7   2.0000      -0.439777       -11.9669
   8   2.0000      -0.367989       -10.0135
   9   0.0000       0.067124         1.8265
  10   0.0000       0.138432         3.7669
  11   0.0000       0.147206         4.0057
  12   0.0000       0.158640         4.3168
  13   0.0000       0.195013         5.3066

MULLIKEN ATOMIC CHARGES
-----------------------
   0 C :   -0.003953
   1 O :   -0.002287
   2 H :   -0.000124
   3 H :   -0.000231
   4 H :   -0.002752
   5 H :    0.000507
   6 C :   -0.183940
   7 O :   -0.461944
   8 H :    0.317286
   9 H :    0.094308
  10 H :    0.135025
  11 H :    0.108106
Sum of atomic charges:   -0.0000000

LOEWDIN ATOMIC CHARGES
----------------------
   0 C :   -0.011552
   1 O :   -0.009085
   2 H :   -0.000308
   3 H :   -0.000176
   4 H :   -0.005026
   5 H :   -0.000227
   6 C :   -0.390890
   7 O :   -0.055891
   8 H :    0.178871
   9 H :    0.102808
  10 H :    0.101309
  11 H :    0.090165

  Mayer bond orders larger than 0.1
B(  6-C ,  7-O ) :   0.9863 B(  6-C ,  9-H ) :   0.9771 B(  6-C , 10-H ) :   0.9709
B(  6-C , 11-H ) :   0.9828 B(  7-O ,  8-H ) :   0.9088

Dispersion correction           -0.000223718
FINAL SINGLE POINT ENERGY      -115.730274493408

DIPOLE MOMENT
-------------
                                X             Y             Z
Electronic contribution:     -0.94664      -1.13055      -1.23047
Nuclear contribution   :      1.56634       1.12266       1.53129
                        -----------------------------------------
Total Dipole Moment    :      0.61969      -0.00789       0.30082
                        -----------------------------------------
Magnitude (a.u.)       :      0.68889
Magnitude (Debye)      :      1.75103

Rotational constants in cm-1:     4.378010     0.843313     0.803573
Rotational constants in MHz : 131249.448295 25281.901981 24090.508603

                             ****ORCA TERMINATED NORMALLY****
TOTAL RUN TIME: 0 days 0 hours 1 minutes 7 seconds 319 msec
