                         Program Version 4.1.2  - RELEASE  -
|  1> #Run DFT-D3 single point of the dimer
|  2> ! wB97X-D3 def2-TZVP TIGHTSCF CHELPG PMODEL PAL8
|  3>
|  4> %base "10-66_DFT_AB"
|  5>
|  6> %scf
|  7> MaxIter 1000
|  8> end
|  9>
| 10> * xyz 0 1
| 11>   C                      6.480167             4.850157             8.017725
| 12>   O                      6.846940             3.890680             7.044795
| 13>   H                      7.195709             4.304133             6.297054
| 14>   H                      7.306813             5.169564             8.669647
| 15>   H                      6.202793             5.826223             7.485602
| 16>   H                      5.554086             4.491351             8.572135
| 17>   C                      7.606595             4.414576             2.850258
| 18>   O                      8.584680             3.451447             2.526812
| 19>   H                      9.147853             3.817140             1.872228
| 20>   H                      6.850071             3.910598             3.460632
| 21>   H                      8.080558             5.189829             3.457271
| 22>   H                      7.230457             4.795250             1.917637
| 23> *
| 24>
| 25> #Run DFT-D3 single point of the molecule with dimer basis set
| 26> $new_job
| 27> %base "10-66_DFT_A"
| 28> ! wB97X-D3 def2-TZVP TIGHTSCF CHELPG PMODEL
| 29>
| 30> %scf
| 31> MaxIter 1000
| 32> end
| 33>
| 34> * xyz 0 1
| 35>   C                      6.480167             4.850157             8.017725
| 36>   O                      6.846940             3.890680             7.044795
| 37>   H                      7.195709             4.304133             6.297054
| 38>   H                      7.306813             5.169564             8.669647
| 39>   H                      6.202793             5.826223             7.485602
| 40>   H                      5.554086             4.491351             8.572135
| 41>   C                    : 7.606595             4.414576             2.850258
| 42>   O                    : 8.584680             3.451447             2.526812
| 43>   H                    : 9.147853             3.817140             1.872228
| 44>   H                    : 6.850071             3.910598             3.460632
| 45>   H                    : 8.080558             5.189829             3.457271
| 46>   H                    : 7.230457             4.795250             1.917637
| 47> *
| 48>
| 49> #Run DFT-D3 single point of the particle with dimer basis set
| 50> $new_job
| 51> %base "10-66_DFT_B"
| 52> ! wB97X-D3 def2-TZVP TIGHTSCF CHELPG PMODEL
| 53>
| 54> %scf
| 55> MaxIter 1000
| 56> end
| 57>
| 58> * xyz 0 1
| 59>   C                    : 6.480167             4.850157             8.017725
| 60>   O                    : 6.846940             3.890680             7.044795
| 61>   H                    : 7.195709             4.304133             6.297054
| 62>   H                    : 7.306813             5.169564             8.669647
| 63>   H                    : 6.202793             5.826223             7.485602
| 64>   H                    : 5.554086             4.491351             8.572135
| 65>   C                      7.606595             4.414576             2.850258
| 66>   O                      8.584680             3.451447             2.526812
| 67>   H                      9.147853             3.817140             1.872228
| 68>   H                      6.850071             3.910598             3.460632
| 69>   H                      8.080558             5.189829             3.457271
| 70>   H                      7.230457             4.795250             1.917637
| 71> *
| 72>
| 73>                          ****END OF INPUT****
 Total Charge           Charge          ....    0
 Multiplicity           Mult            ....    1
 Number of Electrons    NEL             ....   36
Dispersion correction           -0.001030846
FINAL SINGLE POINT ENERGY      -231.465358242706
Dispersion correction           -0.000255562
FINAL SINGLE POINT ENERGY      -115.730619010725

CARTESIAN COORDINATES (ANGSTROEM)
---------------------------------
  C      6.480167    4.850157    8.017725
  O      6.846940    3.890680    7.044795
  H      7.195709    4.304133    6.297054
  H      7.306813    5.169564    8.669647
  H      6.202793    5.826223    7.485602
  H      5.554086    4.491351    8.572135
  C      7.606595    4.414576    2.850258
  O      8.584680    3.451447    2.526812
  H      9.147853    3.817140    1.872228
  H      6.850071    3.910598    3.460632
  H      8.080558    5.189829    3.457271
  H      7.230457    4.795250    1.917637

 Multiplicity           Mult            ....    1
 Number of Electrons    NEL             ....   18
 Basis Dimension        Dim             ....  172

ORBITAL ENERGIES
----------------

  NO   OCC          E(Eh)            E(eV)
   0   2.0000     -19.221593      -523.0461
   1   2.0000     -10.310398      -280.5602
   2   2.0000      -1.139610       -31.0104
   3   2.0000      -0.795810       -21.6551
   4   2.0000      -0.610665       -16.6170
   5   2.0000      -0.549507       -14.9529
   6   2.0000      -0.528163       -14.3721
   7   2.0000      -0.432501       -11.7689
   8   2.0000      -0.370244       -10.0749
   9   0.0000       0.086907         2.3649
  10   0.0000       0.117029         3.1845
  11   0.0000       0.150756         4.1023
  12   0.0000       0.183331         4.9887
  13   0.0000       0.191933         5.2228

MULLIKEN ATOMIC CHARGES
-----------------------
   0 C :   -0.000023
   1 O :   -0.000012
   2 H :   -0.000056
   3 H :   -0.000000
   4 H :   -0.000019
   5 H :   -0.000001
   6 C :   -0.150841
   7 O :   -0.476621
   8 H :    0.307164
   9 H :    0.119398
  10 H :    0.099286
  11 H :    0.101725
Sum of atomic charges:   -0.0000000

LOEWDIN ATOMIC CHARGES
----------------------
   0 C :   -0.000031
   1 O :   -0.000097
   2 H :   -0.001129
   3 H :   -0.000000
   4 H :   -0.000009
   5 H :   -0.000000
   6 C :   -0.376362
   7 O :   -0.071025
   8 H :    0.151564
   9 H :    0.110126
  10 H :    0.094962
  11 H :    0.092001

  Mayer bond orders larger than 0.1
B(  6-C ,  7-O ) :   0.9902 B(  6-C ,  9-H ) :   0.9725 B(  6-C , 10-H ) :   0.9778
B(  6-C , 11-H ) :   0.9847 B(  7-O ,  8-H ) :   0.9070

Dispersion correction           -0.000209428
FINAL SINGLE POINT ENERGY      -115.734502670352

DIPOLE MOMENT
-------------
                                X             Y             Z
Electronic contribution:      1.06721      -1.22755      -0.32942
Nuclear contribution   :     -1.10208       1.84224       0.03543
                        -----------------------------------------
Total Dipole Moment    :     -0.03486       0.61469      -0.29399
                        -----------------------------------------
Magnitude (a.u.)       :      0.68227
Magnitude (Debye)      :      1.73419

Rotational constants in cm-1:     4.229168     0.852486     0.821061
Rotational constants in MHz : 126787.267487 25556.874616 24614.802124

                             ****ORCA TERMINATED NORMALLY****
TOTAL RUN TIME: 0 days 0 hours 1 minutes 4 seconds 625 msec
