                         Program Version 4.1.2  - RELEASE  -
|  1> #Run DFT-D3 single point of the dimer
|  2> ! wB97X-D3 def2-TZVP TIGHTSCF CHELPG PMODEL PAL8
|  3>
|  4> %base "19-158_DFT_AB"
|  5>
|  6> %scf
|  7> MaxIter 1000
|  8> end
|  9>
| 10> * xyz 0 1
| 11>   C                      -9.910332            -1.444865            6.681377
| 12>   O                      -8.594593            -1.476581            6.114144
| 13>   H                      -8.607450            -1.391479            5.132857
| 14>   H                      -10.341876           -0.439712            6.581889
| 15>   H                      -10.615634           -2.049773            6.122155
| 16>   H                      -9.973743            -1.727062            7.796625
| 17>   C                      -7.990486            -4.213735            7.700667
| 18>   O                      -7.204821            -4.225652            8.851542
| 19>   H                      -6.352141            -3.844062            8.557284
| 20>   H                      -8.004291            -5.220981            7.216581
| 21>   H                      -9.041679            -4.169610            8.056314
| 22>   H                      -7.718613            -3.386395            6.999404
| 23> *
| 24>
| 25> #Run DFT-D3 single point of the molecule with dimer basis set
| 26> $new_job
| 27> %base "19-158_DFT_A"
| 28> ! wB97X-D3 def2-TZVP TIGHTSCF CHELPG PMODEL
| 29>
| 30> %scf
| 31> MaxIter 1000
| 32> end
| 33>
| 34> * xyz 0 1
| 35>   C                      -9.910332            -1.444865            6.681377
| 36>   O                      -8.594593            -1.476581            6.114144
| 37>   H                      -8.607450            -1.391479            5.132857
| 38>   H                      -10.341876           -0.439712            6.581889
| 39>   H                      -10.615634           -2.049773            6.122155
| 40>   H                      -9.973743            -1.727062            7.796625
| 41>   C                    : -7.990486            -4.213735            7.700667
| 42>   O                    : -7.204821            -4.225652            8.851542
| 43>   H                    : -6.352141            -3.844062            8.557284
| 44>   H                    : -8.004291            -5.220981            7.216581
| 45>   H                    : -9.041679            -4.169610            8.056314
| 46>   H                    : -7.718613            -3.386395            6.999404
| 47> *
| 48>
| 49> #Run DFT-D3 single point of the particle with dimer basis set
| 50> $new_job
| 51> %base "19-158_DFT_B"
| 52> ! wB97X-D3 def2-TZVP TIGHTSCF CHELPG PMODEL
| 53>
| 54> %scf
| 55> MaxIter 1000
| 56> end
| 57>
| 58> * xyz 0 1
| 59>   C                    : -9.910332            -1.444865            6.681377
| 60>   O                    : -8.594593            -1.476581            6.114144
| 61>   H                    : -8.607450            -1.391479            5.132857
| 62>   H                    : -10.341876           -0.439712            6.581889
| 63>   H                    : -10.615634           -2.049773            6.122155
| 64>   H                    : -9.973743            -1.727062            7.796625
| 65>   C                      -7.990486            -4.213735            7.700667
| 66>   O                      -7.204821            -4.225652            8.851542
| 67>   H                      -6.352141            -3.844062            8.557284
| 68>   H                      -8.004291            -5.220981            7.216581
| 69>   H                      -9.041679            -4.169610            8.056314
| 70>   H                      -7.718613            -3.386395            6.999404
| 71> *
| 72>
| 73>                          ****END OF INPUT****
 Total Charge           Charge          ....    0
 Multiplicity           Mult            ....    1
 Number of Electrons    NEL             ....   36
Dispersion correction           -0.001961698
FINAL SINGLE POINT ENERGY      -231.463385367366
Dispersion correction           -0.000269591
FINAL SINGLE POINT ENERGY      -115.730250134010

CARTESIAN COORDINATES (ANGSTROEM)
---------------------------------
  C     -9.910332   -1.444865    6.681377
  O     -8.594593   -1.476581    6.114144
  H     -8.607450   -1.391479    5.132857
  H    -10.341876   -0.439712    6.581889
  H    -10.615634   -2.049773    6.122155
  H     -9.973743   -1.727062    7.796625
  C     -7.990486   -4.213735    7.700667
  O     -7.204821   -4.225652    8.851542
  H     -6.352141   -3.844062    8.557284
  H     -8.004291   -5.220981    7.216581
  H     -9.041679   -4.169610    8.056314
  H     -7.718613   -3.386395    6.999404

 Multiplicity           Mult            ....    1
 Number of Electrons    NEL             ....   18
 Basis Dimension        Dim             ....  172

ORBITAL ENERGIES
----------------

  NO   OCC          E(Eh)            E(eV)
   0   2.0000     -19.233401      -523.3674
   1   2.0000     -10.317149      -280.7439
   2   2.0000      -1.142875       -31.0992
   3   2.0000      -0.786051       -21.3895
   4   2.0000      -0.611894       -16.6505
   5   2.0000      -0.541487       -14.7346
   6   2.0000      -0.524432       -14.2705
   7   2.0000      -0.439471       -11.9586
   8   2.0000      -0.367488        -9.9999
   9   0.0000       0.083141         2.2624
  10   0.0000       0.113054         3.0764
  11   0.0000       0.152416         4.1474
  12   0.0000       0.162441         4.4202
  13   0.0000       0.188002         5.1158

MULLIKEN ATOMIC CHARGES
-----------------------
   0 C :   -0.008568
   1 O :    0.001748
   2 H :   -0.000103
   3 H :   -0.000260
   4 H :    0.001248
   5 H :    0.002348
   6 C :   -0.162327
   7 O :   -0.456531
   8 H :    0.316343
   9 H :    0.095762
  10 H :    0.111141
  11 H :    0.099199
Sum of atomic charges:    0.0000000

LOEWDIN ATOMIC CHARGES
----------------------
   0 C :   -0.010696
   1 O :   -0.010878
   2 H :   -0.001017
   3 H :   -0.000142
   4 H :   -0.000415
   5 H :   -0.002722
   6 C :   -0.409009
   7 O :   -0.068445
   8 H :    0.183699
   9 H :    0.097770
  10 H :    0.112182
  11 H :    0.109674

  Mayer bond orders larger than 0.1
B(  6-C ,  7-O ) :   1.0157 B(  6-C ,  9-H ) :   0.9682 B(  6-C , 10-H ) :   0.9776
B(  6-C , 11-H ) :   0.9809 B(  7-O ,  8-H ) :   0.8989

Dispersion correction           -0.000237660
FINAL SINGLE POINT ENERGY      -115.731200091146

DIPOLE MOMENT
-------------
                                X             Y             Z
Electronic contribution:      1.01175       0.03210       1.54098
Nuclear contribution   :     -0.77355       0.21395      -2.12590
                        -----------------------------------------
Total Dipole Moment    :      0.23820       0.24605      -0.58492
                        -----------------------------------------
Magnitude (a.u.)       :      0.67780
Magnitude (Debye)      :      1.72282

Rotational constants in cm-1:     4.061226     0.862336     0.815933
Rotational constants in MHz : 121752.502280 25852.182870 24461.054373

                             ****ORCA TERMINATED NORMALLY****
TOTAL RUN TIME: 0 days 0 hours 0 minutes 52 seconds 63 msec
