                         Program Version 4.1.2  - RELEASE  -
|  1> #Run DFT-D3 single point of the dimer
|  2> ! wB97X-D3 def2-TZVP TIGHTSCF CHELPG PMODEL PAL8
|  3>
|  4> %base "13-27_DFT_AB"
|  5>
|  6> %scf
|  7> MaxIter 1000
|  8> end
|  9>
| 10> * xyz 0 1
| 11>   C                      8.730308             3.899226             2.149717
| 12>   O                      8.727510             4.515731             3.391171
| 13>   H                      8.971102             3.845364             4.096785
| 14>   H                      7.977863             3.093714             1.981061
| 15>   H                      8.611493             4.563490             1.375801
| 16>   H                      9.723099             3.443428             1.923112
| 17>   C                      11.182088            4.718349             -0.631126
| 18>   O                      11.233186            4.667703             -2.053851
| 19>   H                      10.467183            4.205962             -2.305741
| 20>   H                      10.332386            5.393297             -0.336643
| 21>   H                      11.164928            3.713559             -0.111626
| 22>   H                      12.155194            5.093004             -0.306110
| 23> *
| 24>
| 25> #Run DFT-D3 single point of the molecule with dimer basis set
| 26> $new_job
| 27> %base "13-27_DFT_A"
| 28> ! wB97X-D3 def2-TZVP TIGHTSCF CHELPG PMODEL
| 29>
| 30> %scf
| 31> MaxIter 1000
| 32> end
| 33>
| 34> * xyz 0 1
| 35>   C                      8.730308             3.899226             2.149717
| 36>   O                      8.727510             4.515731             3.391171
| 37>   H                      8.971102             3.845364             4.096785
| 38>   H                      7.977863             3.093714             1.981061
| 39>   H                      8.611493             4.563490             1.375801
| 40>   H                      9.723099             3.443428             1.923112
| 41>   C                    : 11.182088            4.718349             -0.631126
| 42>   O                    : 11.233186            4.667703             -2.053851
| 43>   H                    : 10.467183            4.205962             -2.305741
| 44>   H                    : 10.332386            5.393297             -0.336643
| 45>   H                    : 11.164928            3.713559             -0.111626
| 46>   H                    : 12.155194            5.093004             -0.306110
| 47> *
| 48>
| 49> #Run DFT-D3 single point of the particle with dimer basis set
| 50> $new_job
| 51> %base "13-27_DFT_B"
| 52> ! wB97X-D3 def2-TZVP TIGHTSCF CHELPG PMODEL
| 53>
| 54> %scf
| 55> MaxIter 1000
| 56> end
| 57>
| 58> * xyz 0 1
| 59>   C                    : 8.730308             3.899226             2.149717
| 60>   O                    : 8.727510             4.515731             3.391171
| 61>   H                    : 8.971102             3.845364             4.096785
| 62>   H                    : 7.977863             3.093714             1.981061
| 63>   H                    : 8.611493             4.563490             1.375801
| 64>   H                    : 9.723099             3.443428             1.923112
| 65>   C                      11.182088            4.718349             -0.631126
| 66>   O                      11.233186            4.667703             -2.053851
| 67>   H                      10.467183            4.205962             -2.305741
| 68>   H                      10.332386            5.393297             -0.336643
| 69>   H                      11.164928            3.713559             -0.111626
| 70>   H                      12.155194            5.093004             -0.306110
| 71> *
| 72>
| 73>                          ****END OF INPUT****
 Total Charge           Charge          ....    0
 Multiplicity           Mult            ....    1
 Number of Electrons    NEL             ....   36
Dispersion correction           -0.001526612
FINAL SINGLE POINT ENERGY      -231.462722397746
Dispersion correction           -0.000250196
FINAL SINGLE POINT ENERGY      -115.730099396249

CARTESIAN COORDINATES (ANGSTROEM)
---------------------------------
  C      8.730308    3.899226    2.149717
  O      8.727510    4.515731    3.391171
  H      8.971102    3.845364    4.096785
  H      7.977863    3.093714    1.981061
  H      8.611493    4.563490    1.375801
  H      9.723099    3.443428    1.923112
  C     11.182088    4.718349   -0.631126
  O     11.233186    4.667703   -2.053851
  H     10.467183    4.205962   -2.305741
  H     10.332386    5.393297   -0.336643
  H     11.164928    3.713559   -0.111626
  H     12.155194    5.093004   -0.306110

 Multiplicity           Mult            ....    1
 Number of Electrons    NEL             ....   18
 Basis Dimension        Dim             ....  172

ORBITAL ENERGIES
----------------

  NO   OCC          E(Eh)            E(eV)
   0   2.0000     -19.228840      -523.2433
   1   2.0000     -10.320813      -280.8436
   2   2.0000      -1.142045       -31.0766
   3   2.0000      -0.792766       -21.5723
   4   2.0000      -0.607419       -16.5287
   5   2.0000      -0.548936       -14.9373
   6   2.0000      -0.517502       -14.0819
   7   2.0000      -0.434743       -11.8300
   8   2.0000      -0.376920       -10.2565
   9   0.0000       0.083209         2.2642
  10   0.0000       0.118690         3.2297
  11   0.0000       0.153059         4.1649
  12   0.0000       0.171079         4.6553
  13   0.0000       0.176021         4.7898

MULLIKEN ATOMIC CHARGES
-----------------------
   0 C :    0.000572
   1 O :    0.000003
   2 H :   -0.000008
   3 H :   -0.000250
   4 H :   -0.001979
   5 H :   -0.002039
   6 C :   -0.167894
   7 O :   -0.459947
   8 H :    0.306928
   9 H :    0.107959
  10 H :    0.100778
  11 H :    0.115877
Sum of atomic charges:   -0.0000000

LOEWDIN ATOMIC CHARGES
----------------------
   0 C :   -0.004782
   1 O :   -0.000014
   2 H :   -0.000002
   3 H :   -0.000041
   4 H :   -0.003372
   5 H :   -0.004006
   6 C :   -0.384491
   7 O :   -0.067426
   8 H :    0.147206
   9 H :    0.105251
  10 H :    0.103815
  11 H :    0.107861

  Mayer bond orders larger than 0.1
B(  6-C ,  7-O ) :   1.0002 B(  6-C ,  9-H ) :   0.9759 B(  6-C , 10-H ) :   0.9690
B(  6-C , 11-H ) :   0.9720 B(  7-O ,  8-H ) :   0.9099

Dispersion correction           -0.000245575
FINAL SINGLE POINT ENERGY      -115.732293283617

DIPOLE MOMENT
-------------
                                X             Y             Z
Electronic contribution:      0.12090       0.01398      -1.83059
Nuclear contribution   :     -0.59426      -0.28873       2.21631
                        -----------------------------------------
Total Dipole Moment    :     -0.47336      -0.27474       0.38572
                        -----------------------------------------
Magnitude (a.u.)       :      0.66958
Magnitude (Debye)      :      1.70193

Rotational constants in cm-1:     4.151162     0.819526     0.800727
Rotational constants in MHz : 124448.700962 24568.764884 24005.177767

                             ****ORCA TERMINATED NORMALLY****
TOTAL RUN TIME: 0 days 0 hours 1 minutes 8 seconds 757 msec
