                         Program Version 4.1.2  - RELEASE  -
|  1> #Run DFT-D3 single point of the dimer
|  2> ! wB97X-D3 def2-TZVP TIGHTSCF CHELPG PMODEL PAL8
|  3>
|  4> %base "16-3_DFT_AB"
|  5>
|  6> %scf
|  7> MaxIter 1000
|  8> end
|  9>
| 10> * xyz 0 1
| 11>   C                      -3.613576            2.949622             3.934506
| 12>   O                      -3.601508            3.698823             5.159507
| 13>   H                      -2.638820            3.713132             5.390762
| 14>   H                      -2.909974            3.467466             3.239017
| 15>   H                      -3.265800            1.935287             3.994618
| 16>   H                      -4.596142            2.930245             3.440482
| 17>   C                      -4.622937            6.512677             6.094771
| 18>   O                      -5.730739            5.646685             5.979663
| 19>   H                      -5.703783            5.372196             5.033767
| 20>   H                      -4.238808            6.649470             7.055892
| 21>   H                      -3.794243            6.162017             5.517498
| 22>   H                      -4.796104            7.446366             5.644331
| 23> *
| 24>
| 25> #Run DFT-D3 single point of the molecule with dimer basis set
| 26> $new_job
| 27> %base "16-3_DFT_A"
| 28> ! wB97X-D3 def2-TZVP TIGHTSCF CHELPG PMODEL
| 29>
| 30> %scf
| 31> MaxIter 1000
| 32> end
| 33>
| 34> * xyz 0 1
| 35>   C                      -3.613576            2.949622             3.934506
| 36>   O                      -3.601508            3.698823             5.159507
| 37>   H                      -2.638820            3.713132             5.390762
| 38>   H                      -2.909974            3.467466             3.239017
| 39>   H                      -3.265800            1.935287             3.994618
| 40>   H                      -4.596142            2.930245             3.440482
| 41>   C                    : -4.622937            6.512677             6.094771
| 42>   O                    : -5.730739            5.646685             5.979663
| 43>   H                    : -5.703783            5.372196             5.033767
| 44>   H                    : -4.238808            6.649470             7.055892
| 45>   H                    : -3.794243            6.162017             5.517498
| 46>   H                    : -4.796104            7.446366             5.644331
| 47> *
| 48>
| 49> #Run DFT-D3 single point of the particle with dimer basis set
| 50> $new_job
| 51> %base "16-3_DFT_B"
| 52> ! wB97X-D3 def2-TZVP TIGHTSCF CHELPG PMODEL
| 53>
| 54> %scf
| 55> MaxIter 1000
| 56> end
| 57>
| 58> * xyz 0 1
| 59>   C                    : -3.613576            2.949622             3.934506
| 60>   O                    : -3.601508            3.698823             5.159507
| 61>   H                    : -2.638820            3.713132             5.390762
| 62>   H                    : -2.909974            3.467466             3.239017
| 63>   H                    : -3.265800            1.935287             3.994618
| 64>   H                    : -4.596142            2.930245             3.440482
| 65>   C                      -4.622937            6.512677             6.094771
| 66>   O                      -5.730739            5.646685             5.979663
| 67>   H                      -5.703783            5.372196             5.033767
| 68>   H                      -4.238808            6.649470             7.055892
| 69>   H                      -3.794243            6.162017             5.517498
| 70>   H                      -4.796104            7.446366             5.644331
| 71> *
| 72>
| 73>                          ****END OF INPUT****
 Total Charge           Charge          ....    0
 Multiplicity           Mult            ....    1
 Number of Electrons    NEL             ....   36
Dispersion correction           -0.001943350
FINAL SINGLE POINT ENERGY      -231.461166721648
Dispersion correction           -0.000238810
FINAL SINGLE POINT ENERGY      -115.732488582842

CARTESIAN COORDINATES (ANGSTROEM)
---------------------------------
  C     -3.613576    2.949622    3.934506
  O     -3.601508    3.698823    5.159507
  H     -2.638820    3.713132    5.390762
  H     -2.909974    3.467466    3.239017
  H     -3.265800    1.935287    3.994618
  H     -4.596142    2.930245    3.440482
  C     -4.622937    6.512677    6.094771
  O     -5.730739    5.646685    5.979663
  H     -5.703783    5.372196    5.033767
  H     -4.238808    6.649470    7.055892
  H     -3.794243    6.162017    5.517498
  H     -4.796104    7.446366    5.644331

 Multiplicity           Mult            ....    1
 Number of Electrons    NEL             ....   18
 Basis Dimension        Dim             ....  172

ORBITAL ENERGIES
----------------

  NO   OCC          E(Eh)            E(eV)
   0   2.0000     -19.234810      -523.4058
   1   2.0000     -10.299543      -280.2648
   2   2.0000      -1.135934       -30.9103
   3   2.0000      -0.803566       -21.8661
   4   2.0000      -0.613178       -16.6854
   5   2.0000      -0.545680       -14.8487
   6   2.0000      -0.531640       -14.4667
   7   2.0000      -0.441079       -12.0024
   8   2.0000      -0.372954       -10.1486
   9   0.0000       0.073172         1.9911
  10   0.0000       0.128224         3.4891
  11   0.0000       0.143875         3.9150
  12   0.0000       0.174719         4.7543
  13   0.0000       0.191130         5.2009

MULLIKEN ATOMIC CHARGES
-----------------------
   0 C :   -0.001673
   1 O :   -0.002128
   2 H :   -0.000306
   3 H :   -0.000086
   4 H :   -0.000027
   5 H :   -0.000143
   6 C :   -0.173624
   7 O :   -0.466990
   8 H :    0.319340
   9 H :    0.120915
  10 H :    0.099123
  11 H :    0.105599
Sum of atomic charges:   -0.0000000

LOEWDIN ATOMIC CHARGES
----------------------
   0 C :   -0.002208
   1 O :   -0.010859
   2 H :   -0.001472
   3 H :   -0.000069
   4 H :   -0.000036
   5 H :   -0.000377
   6 C :   -0.378924
   7 O :   -0.075656
   8 H :    0.189522
   9 H :    0.097563
  10 H :    0.094592
  11 H :    0.087924

  Mayer bond orders larger than 0.1
B(  6-C ,  7-O ) :   0.9986 B(  6-C ,  9-H ) :   0.9750 B(  6-C , 10-H ) :   0.9868
B(  6-C , 11-H ) :   0.9808 B(  7-O ,  8-H ) :   0.8975

Dispersion correction           -0.000216317
FINAL SINGLE POINT ENERGY      -115.728904547494

DIPOLE MOMENT
-------------
                                X             Y             Z
Electronic contribution:     -1.56305      -1.09519       0.17030
Nuclear contribution   :      2.03381       1.27147      -0.70941
                        -----------------------------------------
Total Dipole Moment    :      0.47076       0.17628      -0.53911
                        -----------------------------------------
Magnitude (a.u.)       :      0.73711
Magnitude (Debye)      :      1.87358

Rotational constants in cm-1:     4.573952     0.841337     0.804160
Rotational constants in MHz : 137123.627498 25222.660368 24108.114534

                             ****ORCA TERMINATED NORMALLY****
TOTAL RUN TIME: 0 days 0 hours 1 minutes 5 seconds 624 msec
