                         Program Version 4.1.2  - RELEASE  -
|  1> #Run DFT-D3 single point of the dimer
|  2> ! wB97X-D3 def2-TZVP TIGHTSCF CHELPG PMODEL PAL8
|  3>
|  4> %base "3-38_DFT_AB"
|  5>
|  6> %scf
|  7> MaxIter 1000
|  8> end
|  9>
| 10> * xyz 0 1
| 11>   C                      -4.983724            -1.861540            -7.037725
| 12>   O                      -5.308556            -0.500746            -6.993364
| 13>   H                      -5.230599            -0.272961            -7.890385
| 14>   H                      -4.141318            -2.148880            -7.659056
| 15>   H                      -4.764248            -2.337265            -6.067641
| 16>   H                      -5.873911            -2.396272            -7.501663
| 17>   C                      -9.373559            0.297392             -6.536490
| 18>   O                      -9.456627            1.047933             -5.265026
| 19>   H                      -9.619971            0.582751             -4.399038
| 20>   H                      -8.905925            -0.694538            -6.512490
| 21>   H                      -10.378640           0.221856             -6.997461
| 22>   H                      -8.830165            0.846990             -7.252988
| 23> *
| 24>
| 25> #Run DFT-D3 single point of the molecule with dimer basis set
| 26> $new_job
| 27> %base "3-38_DFT_A"
| 28> ! wB97X-D3 def2-TZVP TIGHTSCF CHELPG PMODEL
| 29>
| 30> %scf
| 31> MaxIter 1000
| 32> end
| 33>
| 34> * xyz 0 1
| 35>   C                      -4.983724            -1.861540            -7.037725
| 36>   O                      -5.308556            -0.500746            -6.993364
| 37>   H                      -5.230599            -0.272961            -7.890385
| 38>   H                      -4.141318            -2.148880            -7.659056
| 39>   H                      -4.764248            -2.337265            -6.067641
| 40>   H                      -5.873911            -2.396272            -7.501663
| 41>   C                    : -9.373559            0.297392             -6.536490
| 42>   O                    : -9.456627            1.047933             -5.265026
| 43>   H                    : -9.619971            0.582751             -4.399038
| 44>   H                    : -8.905925            -0.694538            -6.512490
| 45>   H                    : -10.378640           0.221856             -6.997461
| 46>   H                    : -8.830165            0.846990             -7.252988
| 47> *
| 48>
| 49> #Run DFT-D3 single point of the particle with dimer basis set
| 50> $new_job
| 51> %base "3-38_DFT_B"
| 52> ! wB97X-D3 def2-TZVP TIGHTSCF CHELPG PMODEL
| 53>
| 54> %scf
| 55> MaxIter 1000
| 56> end
| 57>
| 58> * xyz 0 1
| 59>   C                    : -4.983724            -1.861540            -7.037725
| 60>   O                    : -5.308556            -0.500746            -6.993364
| 61>   H                    : -5.230599            -0.272961            -7.890385
| 62>   H                    : -4.141318            -2.148880            -7.659056
| 63>   H                    : -4.764248            -2.337265            -6.067641
| 64>   H                    : -5.873911            -2.396272            -7.501663
| 65>   C                      -9.373559            0.297392             -6.536490
| 66>   O                      -9.456627            1.047933             -5.265026
| 67>   H                      -9.619971            0.582751             -4.399038
| 68>   H                      -8.905925            -0.694538            -6.512490
| 69>   H                      -10.378640           0.221856             -6.997461
| 70>   H                      -8.830165            0.846990             -7.252988
| 71> *
| 72>
| 73>                          ****END OF INPUT****
 Total Charge           Charge          ....    0
 Multiplicity           Mult            ....    1
 Number of Electrons    NEL             ....   36
Dispersion correction           -0.001090791
FINAL SINGLE POINT ENERGY      -231.454374800244
Dispersion correction           -0.000226256
FINAL SINGLE POINT ENERGY      -115.729779512721

CARTESIAN COORDINATES (ANGSTROEM)
---------------------------------
  C     -4.983724   -1.861540   -7.037725
  O     -5.308556   -0.500746   -6.993364
  H     -5.230599   -0.272961   -7.890385
  H     -4.141318   -2.148880   -7.659056
  H     -4.764248   -2.337265   -6.067641
  H     -5.873911   -2.396272   -7.501663
  C     -9.373559    0.297392   -6.536490
  O     -9.456627    1.047933   -5.265026
  H     -9.619971    0.582751   -4.399038
  H     -8.905925   -0.694538   -6.512490
  H    -10.378640    0.221856   -6.997461
  H     -8.830165    0.846990   -7.252988

 Multiplicity           Mult            ....    1
 Number of Electrons    NEL             ....   18
 Basis Dimension        Dim             ....  172

ORBITAL ENERGIES
----------------

  NO   OCC          E(Eh)            E(eV)
   0   2.0000     -19.228433      -523.2323
   1   2.0000     -10.318205      -280.7726
   2   2.0000      -1.102306       -29.9953
   3   2.0000      -0.804039       -21.8790
   4   2.0000      -0.598947       -16.2982
   5   2.0000      -0.528768       -14.3885
   6   2.0000      -0.524456       -14.2712
   7   2.0000      -0.421335       -11.4651
   8   2.0000      -0.372177       -10.1274
   9   0.0000       0.081217         2.2100
  10   0.0000       0.113739         3.0950
  11   0.0000       0.141693         3.8557
  12   0.0000       0.164124         4.4660
  13   0.0000       0.187871         5.1122

MULLIKEN ATOMIC CHARGES
-----------------------
   0 C :    0.000294
   1 O :    0.000005
   2 H :   -0.000109
   3 H :   -0.000012
   4 H :   -0.000029
   5 H :   -0.000272
   6 C :   -0.154123
   7 O :   -0.522326
   8 H :    0.325895
   9 H :    0.112951
  10 H :    0.109904
  11 H :    0.127821
Sum of atomic charges:   -0.0000000

LOEWDIN ATOMIC CHARGES
----------------------
   0 C :   -0.000231
   1 O :   -0.000111
   2 H :   -0.000093
   3 H :   -0.000002
   4 H :   -0.000005
   5 H :   -0.000175
   6 C :   -0.337454
   7 O :   -0.145079
   8 H :    0.183260
   9 H :    0.098811
  10 H :    0.102124
  11 H :    0.098955

  Mayer bond orders larger than 0.1
B(  6-C ,  7-O ) :   0.9860 B(  6-C ,  9-H ) :   0.9691 B(  6-C , 10-H ) :   0.9781
B(  6-C , 11-H ) :   0.9726 B(  7-O ,  8-H ) :   0.8821

Dispersion correction           -0.000320702
FINAL SINGLE POINT ENERGY      -115.724385021237

DIPOLE MOMENT
-------------
                                X             Y             Z
Electronic contribution:     -0.00949       0.94726       1.53853
Nuclear contribution   :     -0.04206      -1.59137      -1.56650
                        -----------------------------------------
Total Dipole Moment    :     -0.05155      -0.64411      -0.02797
                        -----------------------------------------
Magnitude (a.u.)       :      0.64677
Magnitude (Debye)      :      1.64396

Rotational constants in cm-1:     4.581581     0.746871     0.728291
Rotational constants in MHz : 137352.341187 22390.624414 21833.600687

                             ****ORCA TERMINATED NORMALLY****
TOTAL RUN TIME: 0 days 0 hours 6 minutes 17 seconds 574 msec
