                         Program Version 4.1.2  - RELEASE  -
|  1> #Run DFT-D3 single point of the dimer
|  2> ! wB97X-D3 def2-TZVP TIGHTSCF CHELPG PMODEL PAL8
|  3>
|  4> %base "19-137_DFT_AB"
|  5>
|  6> %scf
|  7> MaxIter 1000
|  8> end
|  9>
| 10> * xyz 0 1
| 11>   C                      -7.106117            -0.711953            -4.295349
| 12>   O                      -7.987258            -0.969623            -5.345620
| 13>   H                      -8.785335            -0.606331            -5.012032
| 14>   H                      -6.036073            -1.036936            -4.411769
| 15>   H                      -7.037151            0.351110             -4.185939
| 16>   H                      -7.469075            -1.155235            -3.374603
| 17>   C                      -5.962067            2.058000             -6.727734
| 18>   O                      -6.074522            0.724130             -7.258330
| 19>   H                      -6.830663            0.692795             -7.852670
| 20>   H                      -5.898301            2.758126             -7.603611
| 21>   H                      -6.811730            2.365219             -6.074757
| 22>   H                      -4.984122            2.110984             -6.236321
| 23> *
| 24>
| 25> #Run DFT-D3 single point of the molecule with dimer basis set
| 26> $new_job
| 27> %base "19-137_DFT_A"
| 28> ! wB97X-D3 def2-TZVP TIGHTSCF CHELPG PMODEL
| 29>
| 30> %scf
| 31> MaxIter 1000
| 32> end
| 33>
| 34> * xyz 0 1
| 35>   C                      -7.106117            -0.711953            -4.295349
| 36>   O                      -7.987258            -0.969623            -5.345620
| 37>   H                      -8.785335            -0.606331            -5.012032
| 38>   H                      -6.036073            -1.036936            -4.411769
| 39>   H                      -7.037151            0.351110             -4.185939
| 40>   H                      -7.469075            -1.155235            -3.374603
| 41>   C                    : -5.962067            2.058000             -6.727734
| 42>   O                    : -6.074522            0.724130             -7.258330
| 43>   H                    : -6.830663            0.692795             -7.852670
| 44>   H                    : -5.898301            2.758126             -7.603611
| 45>   H                    : -6.811730            2.365219             -6.074757
| 46>   H                    : -4.984122            2.110984             -6.236321
| 47> *
| 48>
| 49> #Run DFT-D3 single point of the particle with dimer basis set
| 50> $new_job
| 51> %base "19-137_DFT_B"
| 52> ! wB97X-D3 def2-TZVP TIGHTSCF CHELPG PMODEL
| 53>
| 54> %scf
| 55> MaxIter 1000
| 56> end
| 57>
| 58> * xyz 0 1
| 59>   C                    : -7.106117            -0.711953            -4.295349
| 60>   O                    : -7.987258            -0.969623            -5.345620
| 61>   H                    : -8.785335            -0.606331            -5.012032
| 62>   H                    : -6.036073            -1.036936            -4.411769
| 63>   H                    : -7.037151            0.351110             -4.185939
| 64>   H                    : -7.469075            -1.155235            -3.374603
| 65>   C                      -5.962067            2.058000             -6.727734
| 66>   O                      -6.074522            0.724130             -7.258330
| 67>   H                      -6.830663            0.692795             -7.852670
| 68>   H                      -5.898301            2.758126             -7.603611
| 69>   H                      -6.811730            2.365219             -6.074757
| 70>   H                      -4.984122            2.110984             -6.236321
| 71> *
| 72>
| 73>                          ****END OF INPUT****
 Total Charge           Charge          ....    0
 Multiplicity           Mult            ....    1
 Number of Electrons    NEL             ....   36
Dispersion correction           -0.002018677
FINAL SINGLE POINT ENERGY      -231.465551258218
Dispersion correction           -0.000209132
FINAL SINGLE POINT ENERGY      -115.730407691162

CARTESIAN COORDINATES (ANGSTROEM)
---------------------------------
  C     -7.106117   -0.711953   -4.295349
  O     -7.987258   -0.969623   -5.345620
  H     -8.785335   -0.606331   -5.012032
  H     -6.036073   -1.036936   -4.411769
  H     -7.037151    0.351110   -4.185939
  H     -7.469075   -1.155235   -3.374603
  C     -5.962067    2.058000   -6.727734
  O     -6.074522    0.724130   -7.258330
  H     -6.830663    0.692795   -7.852670
  H     -5.898301    2.758126   -7.603611
  H     -6.811730    2.365219   -6.074757
  H     -4.984122    2.110984   -6.236321

 Multiplicity           Mult            ....    1
 Number of Electrons    NEL             ....   18
 Basis Dimension        Dim             ....  172

ORBITAL ENERGIES
----------------

  NO   OCC          E(Eh)            E(eV)
   0   2.0000     -19.229835      -523.2704
   1   2.0000     -10.321222      -280.8547
   2   2.0000      -1.127841       -30.6901
   3   2.0000      -0.792090       -21.5539
   4   2.0000      -0.604364       -16.4456
   5   2.0000      -0.538643       -14.6572
   6   2.0000      -0.521981       -14.2038
   7   2.0000      -0.434236       -11.8162
   8   2.0000      -0.373890       -10.1741
   9   0.0000       0.089118         2.4250
  10   0.0000       0.126944         3.4543
  11   0.0000       0.149353         4.0641
  12   0.0000       0.169151         4.6028
  13   0.0000       0.194910         5.3038

MULLIKEN ATOMIC CHARGES
-----------------------
   0 C :   -0.000172
   1 O :   -0.001406
   2 H :   -0.000321
   3 H :   -0.001902
   4 H :    0.000253
   5 H :    0.000089
   6 C :   -0.174739
   7 O :   -0.481166
   8 H :    0.313297
   9 H :    0.107268
  10 H :    0.111859
  11 H :    0.126940
Sum of atomic charges:   -0.0000000

LOEWDIN ATOMIC CHARGES
----------------------
   0 C :   -0.008087
   1 O :   -0.004315
   2 H :   -0.000434
   3 H :   -0.001283
   4 H :   -0.001575
   5 H :   -0.000122
   6 C :   -0.372213
   7 O :   -0.089413
   8 H :    0.165949
   9 H :    0.101101
  10 H :    0.099394
  11 H :    0.110997

  Mayer bond orders larger than 0.1
B(  6-C ,  7-O ) :   0.9852 B(  6-C ,  9-H ) :   0.9777 B(  6-C , 10-H ) :   0.9645
B(  6-C , 11-H ) :   0.9742 B(  7-O ,  8-H ) :   0.8996

Dispersion correction           -0.000253034
FINAL SINGLE POINT ENERGY      -115.735234716330

DIPOLE MOMENT
-------------
                                X             Y             Z
Electronic contribution:     -0.06386      -1.70582      -0.46544
Nuclear contribution   :     -0.34465       2.23960       0.28832
                        -----------------------------------------
Total Dipole Moment    :     -0.40851       0.53378      -0.17712
                        -----------------------------------------
Magnitude (a.u.)       :      0.69511
Magnitude (Debye)      :      1.76683

Rotational constants in cm-1:     4.126737     0.807446     0.780982
Rotational constants in MHz : 123716.471501 24206.627476 23413.247604

                             ****ORCA TERMINATED NORMALLY****
TOTAL RUN TIME: 0 days 0 hours 0 minutes 50 seconds 210 msec
