                         Program Version 4.1.2  - RELEASE  -
|  1> #Run DFT-D3 single point of the dimer
|  2> ! wB97X-D3 def2-TZVP TIGHTSCF CHELPG PMODEL PAL8
|  3>
|  4> %base "1-102_DFT_AB"
|  5>
|  6> %scf
|  7> MaxIter 1000
|  8> end
|  9>
| 10> * xyz 0 1
| 11>   C                      -0.021919            8.009453             2.783988
| 12>   O                      -0.528219            7.199774             3.833651
| 13>   H                      0.125578             6.504699             4.084652
| 14>   H                      0.915588             8.444604             3.152632
| 15>   H                      0.145282             7.447361             1.830952
| 16>   H                      -0.773289            8.872872             2.476492
| 17>   C                      -4.728299            5.566947             3.681288
| 18>   O                      -3.589925            5.869790             4.411110
| 19>   H                      -3.218320            6.670380             4.094765
| 20>   H                      -5.260163            6.458923             3.442964
| 21>   H                      -4.550372            5.150121             2.696832
| 22>   H                      -5.420831            4.930192             4.198414
| 23> *
| 24>
| 25> #Run DFT-D3 single point of the molecule with dimer basis set
| 26> $new_job
| 27> %base "1-102_DFT_A"
| 28> ! wB97X-D3 def2-TZVP TIGHTSCF CHELPG PMODEL
| 29>
| 30> %scf
| 31> MaxIter 1000
| 32> end
| 33>
| 34> * xyz 0 1
| 35>   C                      -0.021919            8.009453             2.783988
| 36>   O                      -0.528219            7.199774             3.833651
| 37>   H                      0.125578             6.504699             4.084652
| 38>   H                      0.915588             8.444604             3.152632
| 39>   H                      0.145282             7.447361             1.830952
| 40>   H                      -0.773289            8.872872             2.476492
| 41>   C                    : -4.728299            5.566947             3.681288
| 42>   O                    : -3.589925            5.869790             4.411110
| 43>   H                    : -3.218320            6.670380             4.094765
| 44>   H                    : -5.260163            6.458923             3.442964
| 45>   H                    : -4.550372            5.150121             2.696832
| 46>   H                    : -5.420831            4.930192             4.198414
| 47> *
| 48>
| 49> #Run DFT-D3 single point of the particle with dimer basis set
| 50> $new_job
| 51> %base "1-102_DFT_B"
| 52> ! wB97X-D3 def2-TZVP TIGHTSCF CHELPG PMODEL
| 53>
| 54> %scf
| 55> MaxIter 1000
| 56> end
| 57>
| 58> * xyz 0 1
| 59>   C                    : -0.021919            8.009453             2.783988
| 60>   O                    : -0.528219            7.199774             3.833651
| 61>   H                    : 0.125578             6.504699             4.084652
| 62>   H                    : 0.915588             8.444604             3.152632
| 63>   H                    : 0.145282             7.447361             1.830952
| 64>   H                    : -0.773289            8.872872             2.476492
| 65>   C                      -4.728299            5.566947             3.681288
| 66>   O                      -3.589925            5.869790             4.411110
| 67>   H                      -3.218320            6.670380             4.094765
| 68>   H                      -5.260163            6.458923             3.442964
| 69>   H                      -4.550372            5.150121             2.696832
| 70>   H                      -5.420831            4.930192             4.198414
| 71> *
| 72>
| 73>                          ****END OF INPUT****
 Total Charge           Charge          ....    0
 Multiplicity           Mult            ....    1
 Number of Electrons    NEL             ....   36
Dispersion correction           -0.001200090
FINAL SINGLE POINT ENERGY      -231.465364851079
Dispersion correction           -0.000261686
FINAL SINGLE POINT ENERGY      -115.729320467320

CARTESIAN COORDINATES (ANGSTROEM)
---------------------------------
  C     -0.021919    8.009453    2.783988
  O     -0.528219    7.199774    3.833651
  H      0.125578    6.504699    4.084652
  H      0.915588    8.444604    3.152632
  H      0.145282    7.447361    1.830952
  H     -0.773289    8.872872    2.476492
  C     -4.728299    5.566947    3.681288
  O     -3.589925    5.869790    4.411110
  H     -3.218320    6.670380    4.094765
  H     -5.260163    6.458923    3.442964
  H     -4.550372    5.150121    2.696832
  H     -5.420831    4.930192    4.198414

 Multiplicity           Mult            ....    1
 Number of Electrons    NEL             ....   18
 Basis Dimension        Dim             ....  172

ORBITAL ENERGIES
----------------

  NO   OCC          E(Eh)            E(eV)
   0   2.0000     -19.228794      -523.2421
   1   2.0000     -10.304822      -280.4085
   2   2.0000      -1.149109       -31.2688
   3   2.0000      -0.803344       -21.8601
   4   2.0000      -0.625427       -17.0187
   5   2.0000      -0.541267       -14.7286
   6   2.0000      -0.537286       -14.6203
   7   2.0000      -0.433521       -11.7967
   8   2.0000      -0.372424       -10.1342
   9   0.0000       0.076756         2.0886
  10   0.0000       0.123719         3.3666
  11   0.0000       0.152916         4.1610
  12   0.0000       0.166372         4.5272
  13   0.0000       0.197854         5.3839

MULLIKEN ATOMIC CHARGES
-----------------------
   0 C :   -0.000854
   1 O :   -0.000752
   2 H :   -0.000345
   3 H :   -0.000021
   4 H :    0.000088
   5 H :    0.000049
   6 C :   -0.155517
   7 O :   -0.468816
   8 H :    0.315961
   9 H :    0.100414
  10 H :    0.091843
  11 H :    0.117950
Sum of atomic charges:   -0.0000000

LOEWDIN ATOMIC CHARGES
----------------------
   0 C :   -0.000646
   1 O :   -0.002311
   2 H :   -0.000442
   3 H :   -0.000022
   4 H :   -0.000009
   5 H :   -0.000059
   6 C :   -0.398482
   7 O :   -0.041576
   8 H :    0.158091
   9 H :    0.090461
  10 H :    0.091255
  11 H :    0.103741

  Mayer bond orders larger than 0.1
B(  6-C ,  7-O ) :   1.0059 B(  6-C ,  9-H ) :   0.9914 B(  6-C , 10-H ) :   0.9709
B(  6-C , 11-H ) :   0.9747 B(  7-O ,  8-H ) :   0.9003

Dispersion correction           -0.000227838
FINAL SINGLE POINT ENERGY      -115.732928594097

DIPOLE MOMENT
-------------
                                X             Y             Z
Electronic contribution:      1.52022       0.22032       1.11415
Nuclear contribution   :     -1.74471       0.20676      -1.60160
                        -----------------------------------------
Total Dipole Moment    :     -0.22449       0.42707      -0.48746
                        -----------------------------------------
Magnitude (a.u.)       :      0.68586
Magnitude (Debye)      :      1.74332

Rotational constants in cm-1:     4.604390     0.855746     0.822442
Rotational constants in MHz : 138036.125935 25654.617290 24656.181712

                             ****ORCA TERMINATED NORMALLY****
TOTAL RUN TIME: 0 days 0 hours 4 minutes 23 seconds 588 msec
