                         Program Version 4.1.2  - RELEASE  -
|  1> #Run DFT-D3 single point of the dimer
|  2> ! wB97X-D3 def2-TZVP TIGHTSCF CHELPG PMODEL PAL8
|  3>
|  4> %base "21-9_DFT_AB"
|  5>
|  6> %scf
|  7> MaxIter 1000
|  8> end
|  9>
| 10> * xyz 0 1
| 11>   C                      -6.197209            -10.043977           -7.076087
| 12>   O                      -7.192169            -9.113181            -7.459103
| 13>   H                      -7.983588            -9.380507            -7.088494
| 14>   H                      -6.571320            -11.022002           -7.330227
| 15>   H                      -5.260879            -9.809619            -7.601295
| 16>   H                      -5.787484            -10.013825           -6.086584
| 17>   C                      -10.292282           -10.298115           -7.803485
| 18>   O                      -9.893971            -9.092329            -7.274887
| 19>   H                      -10.588177           -8.420497            -7.344512
| 20>   H                      -10.948231           -10.860862           -7.085478
| 21>   H                      -10.845330           -10.100252           -8.775210
| 22>   H                      -9.436841            -10.959219           -8.103490
| 23> *
| 24>
| 25> #Run DFT-D3 single point of the molecule with dimer basis set
| 26> $new_job
| 27> %base "21-9_DFT_A"
| 28> ! wB97X-D3 def2-TZVP TIGHTSCF CHELPG PMODEL
| 29>
| 30> %scf
| 31> MaxIter 1000
| 32> end
| 33>
| 34> * xyz 0 1
| 35>   C                      -6.197209            -10.043977           -7.076087
| 36>   O                      -7.192169            -9.113181            -7.459103
| 37>   H                      -7.983588            -9.380507            -7.088494
| 38>   H                      -6.571320            -11.022002           -7.330227
| 39>   H                      -5.260879            -9.809619            -7.601295
| 40>   H                      -5.787484            -10.013825           -6.086584
| 41>   C                    : -10.292282           -10.298115           -7.803485
| 42>   O                    : -9.893971            -9.092329            -7.274887
| 43>   H                    : -10.588177           -8.420497            -7.344512
| 44>   H                    : -10.948231           -10.860862           -7.085478
| 45>   H                    : -10.845330           -10.100252           -8.775210
| 46>   H                    : -9.436841            -10.959219           -8.103490
| 47> *
| 48>
| 49> #Run DFT-D3 single point of the particle with dimer basis set
| 50> $new_job
| 51> %base "21-9_DFT_B"
| 52> ! wB97X-D3 def2-TZVP TIGHTSCF CHELPG PMODEL
| 53>
| 54> %scf
| 55> MaxIter 1000
| 56> end
| 57>
| 58> * xyz 0 1
| 59>   C                    : -6.197209            -10.043977           -7.076087
| 60>   O                    : -7.192169            -9.113181            -7.459103
| 61>   H                    : -7.983588            -9.380507            -7.088494
| 62>   H                    : -6.571320            -11.022002           -7.330227
| 63>   H                    : -5.260879            -9.809619            -7.601295
| 64>   H                    : -5.787484            -10.013825           -6.086584
| 65>   C                      -10.292282           -10.298115           -7.803485
| 66>   O                      -9.893971            -9.092329            -7.274887
| 67>   H                      -10.588177           -8.420497            -7.344512
| 68>   H                      -10.948231           -10.860862           -7.085478
| 69>   H                      -10.845330           -10.100252           -8.775210
| 70>   H                      -9.436841            -10.959219           -8.103490
| 71> *
| 72>
| 73>                          ****END OF INPUT****
 Total Charge           Charge          ....    0
 Multiplicity           Mult            ....    1
 Number of Electrons    NEL             ....   36
Dispersion correction           -0.001781503
FINAL SINGLE POINT ENERGY      -231.465057905409
Dispersion correction           -0.000241853
FINAL SINGLE POINT ENERGY      -115.729160608086

CARTESIAN COORDINATES (ANGSTROEM)
---------------------------------
  C     -6.197209  -10.043977   -7.076087
  O     -7.192169   -9.113181   -7.459103
  H     -7.983588   -9.380507   -7.088494
  H     -6.571320  -11.022002   -7.330227
  H     -5.260879   -9.809619   -7.601295
  H     -5.787484  -10.013825   -6.086584
  C    -10.292282  -10.298115   -7.803485
  O     -9.893971   -9.092329   -7.274887
  H    -10.588177   -8.420497   -7.344512
  H    -10.948231  -10.860862   -7.085478
  H    -10.845330  -10.100252   -8.775210
  H     -9.436841  -10.959219   -8.103490

 Multiplicity           Mult            ....    1
 Number of Electrons    NEL             ....   18
 Basis Dimension        Dim             ....  172

ORBITAL ENERGIES
----------------

  NO   OCC          E(Eh)            E(eV)
   0   2.0000     -19.230921      -523.3000
   1   2.0000     -10.320786      -280.8429
   2   2.0000      -1.146017       -31.1847
   3   2.0000      -0.788007       -21.4428
   4   2.0000      -0.614331       -16.7168
   5   2.0000      -0.544819       -14.8253
   6   2.0000      -0.532899       -14.5009
   7   2.0000      -0.419466       -11.4142
   8   2.0000      -0.371235       -10.1018
   9   0.0000       0.097491         2.6529
  10   0.0000       0.117971         3.2102
  11   0.0000       0.152002         4.1362
  12   0.0000       0.187593         5.1047
  13   0.0000       0.198555         5.4030

MULLIKEN ATOMIC CHARGES
-----------------------
   0 C :   -0.000240
   1 O :    0.001931
   2 H :   -0.009236
   3 H :    0.000160
   4 H :   -0.000010
   5 H :   -0.000028
   6 C :   -0.159697
   7 O :   -0.464086
   8 H :    0.318410
   9 H :    0.096403
  10 H :    0.094957
  11 H :    0.121435
Sum of atomic charges:    0.0000000

LOEWDIN ATOMIC CHARGES
----------------------
   0 C :   -0.001285
   1 O :   -0.010764
   2 H :   -0.035819
   3 H :   -0.000653
   4 H :   -0.000014
   5 H :   -0.000010
   6 C :   -0.419269
   7 O :   -0.020237
   8 H :    0.177161
   9 H :    0.096647
  10 H :    0.100222
  11 H :    0.114022

  Mayer bond orders larger than 0.1
B(  6-C ,  7-O ) :   0.9914 B(  6-C ,  9-H ) :   0.9698 B(  6-C , 10-H ) :   0.9803
B(  6-C , 11-H ) :   0.9719 B(  7-O ,  8-H ) :   0.8896

Dispersion correction           -0.000243310
FINAL SINGLE POINT ENERGY      -115.732681712113

DIPOLE MOMENT
-------------
                                X             Y             Z
Electronic contribution:      0.69383       1.54815       0.80668
Nuclear contribution   :     -1.27572      -1.55240      -1.06422
                        -----------------------------------------
Total Dipole Moment    :     -0.58189      -0.00425      -0.25754
                        -----------------------------------------
Magnitude (a.u.)       :      0.63635
Magnitude (Debye)      :      1.61748

Rotational constants in cm-1:     4.144845     0.852415     0.828809
Rotational constants in MHz : 124259.318913 25554.759978 24847.071885

                             ****ORCA TERMINATED NORMALLY****
TOTAL RUN TIME: 0 days 0 hours 1 minutes 5 seconds 927 msec
