                         Program Version 4.1.2  - RELEASE  -
|  1> #Run DFT-D3 single point of the dimer
|  2> ! wB97X-D3 def2-TZVP TIGHTSCF CHELPG PMODEL PAL8
|  3>
|  4> %base "5-158_DFT_AB"
|  5>
|  6> %scf
|  7> MaxIter 1000
|  8> end
|  9>
| 10> * xyz 0 1
| 11>   C                      -4.490171            -8.439713            1.377857
| 12>   O                      -5.249925            -9.607869            1.666368
| 13>   H                      -6.214125            -9.396867            1.541505
| 14>   H                      -4.785397            -7.682133            2.112799
| 15>   H                      -3.375560            -8.481849            1.470877
| 16>   H                      -4.515786            -8.055330            0.410306
| 17>   C                      -2.746981            -10.165839           4.191200
| 18>   O                      -3.048148            -11.236684           3.376958
| 19>   H                      -3.689760            -10.933665           2.729849
| 20>   H                      -1.646971            -9.973468            4.337059
| 21>   H                      -3.318697            -9.308263            3.870905
| 22>   H                      -3.193690            -10.319030           5.147980
| 23> *
| 24>
| 25> #Run DFT-D3 single point of the molecule with dimer basis set
| 26> $new_job
| 27> %base "5-158_DFT_A"
| 28> ! wB97X-D3 def2-TZVP TIGHTSCF CHELPG PMODEL
| 29>
| 30> %scf
| 31> MaxIter 1000
| 32> end
| 33>
| 34> * xyz 0 1
| 35>   C                      -4.490171            -8.439713            1.377857
| 36>   O                      -5.249925            -9.607869            1.666368
| 37>   H                      -6.214125            -9.396867            1.541505
| 38>   H                      -4.785397            -7.682133            2.112799
| 39>   H                      -3.375560            -8.481849            1.470877
| 40>   H                      -4.515786            -8.055330            0.410306
| 41>   C                    : -2.746981            -10.165839           4.191200
| 42>   O                    : -3.048148            -11.236684           3.376958
| 43>   H                    : -3.689760            -10.933665           2.729849
| 44>   H                    : -1.646971            -9.973468            4.337059
| 45>   H                    : -3.318697            -9.308263            3.870905
| 46>   H                    : -3.193690            -10.319030           5.147980
| 47> *
| 48>
| 49> #Run DFT-D3 single point of the particle with dimer basis set
| 50> $new_job
| 51> %base "5-158_DFT_B"
| 52> ! wB97X-D3 def2-TZVP TIGHTSCF CHELPG PMODEL
| 53>
| 54> %scf
| 55> MaxIter 1000
| 56> end
| 57>
| 58> * xyz 0 1
| 59>   C                    : -4.490171            -8.439713            1.377857
| 60>   O                    : -5.249925            -9.607869            1.666368
| 61>   H                    : -6.214125            -9.396867            1.541505
| 62>   H                    : -4.785397            -7.682133            2.112799
| 63>   H                    : -3.375560            -8.481849            1.470877
| 64>   H                    : -4.515786            -8.055330            0.410306
| 65>   C                      -2.746981            -10.165839           4.191200
| 66>   O                      -3.048148            -11.236684           3.376958
| 67>   H                      -3.689760            -10.933665           2.729849
| 68>   H                      -1.646971            -9.973468            4.337059
| 69>   H                      -3.318697            -9.308263            3.870905
| 70>   H                      -3.193690            -10.319030           5.147980
| 71> *
| 72>
| 73>                          ****END OF INPUT****
 Total Charge           Charge          ....    0
 Multiplicity           Mult            ....    1
 Number of Electrons    NEL             ....   36
Dispersion correction           -0.002141456
FINAL SINGLE POINT ENERGY      -231.461650381951
Dispersion correction           -0.000260530
FINAL SINGLE POINT ENERGY      -115.725060134346

CARTESIAN COORDINATES (ANGSTROEM)
---------------------------------
  C     -4.490171   -8.439713    1.377857
  O     -5.249925   -9.607869    1.666368
  H     -6.214125   -9.396867    1.541505
  H     -4.785397   -7.682133    2.112799
  H     -3.375560   -8.481849    1.470877
  H     -4.515786   -8.055330    0.410306
  C     -2.746981  -10.165839    4.191200
  O     -3.048148  -11.236684    3.376958
  H     -3.689760  -10.933665    2.729849
  H     -1.646971   -9.973468    4.337059
  H     -3.318697   -9.308263    3.870905
  H     -3.193690  -10.319030    5.147980

 Multiplicity           Mult            ....    1
 Number of Electrons    NEL             ....   18
 Basis Dimension        Dim             ....  172

ORBITAL ENERGIES
----------------

  NO   OCC          E(Eh)            E(eV)
   0   2.0000     -19.229276      -523.2552
   1   2.0000     -10.308446      -280.5071
   2   2.0000      -1.148414       -31.2499
   3   2.0000      -0.794519       -21.6200
   4   2.0000      -0.622066       -16.9273
   5   2.0000      -0.543286       -14.7836
   6   2.0000      -0.533733       -14.5236
   7   2.0000      -0.430431       -11.7126
   8   2.0000      -0.369696       -10.0599
   9   0.0000       0.067146         1.8271
  10   0.0000       0.138369         3.7652
  11   0.0000       0.145852         3.9688
  12   0.0000       0.161748         4.4014
  13   0.0000       0.183270         4.9870

MULLIKEN ATOMIC CHARGES
-----------------------
   0 C :   -0.002089
   1 O :   -0.000969
   2 H :   -0.000067
   3 H :   -0.000585
   4 H :    0.001038
   5 H :    0.000061
   6 C :   -0.149761
   7 O :   -0.462440
   8 H :    0.315806
   9 H :    0.107081
  10 H :    0.091591
  11 H :    0.100335
Sum of atomic charges:   -0.0000000

LOEWDIN ATOMIC CHARGES
----------------------
   0 C :   -0.009319
   1 O :   -0.007030
   2 H :   -0.000263
   3 H :   -0.000921
   4 H :   -0.002152
   5 H :   -0.000065
   6 C :   -0.408143
   7 O :   -0.045875
   8 H :    0.175562
   9 H :    0.108221
  10 H :    0.097471
  11 H :    0.092514

  Mayer bond orders larger than 0.1
B(  6-C ,  7-O ) :   1.0001 B(  6-C ,  9-H ) :   0.9710 B(  6-C , 10-H ) :   0.9907
B(  6-C , 11-H ) :   0.9793 B(  7-O ,  8-H ) :   0.9091

Dispersion correction           -0.000225960
FINAL SINGLE POINT ENERGY      -115.729268459184

DIPOLE MOMENT
-------------
                                X             Y             Z
Electronic contribution:     -0.19329      -1.50100      -1.06949
Nuclear contribution   :     -0.14379       2.10427       0.96313
                        -----------------------------------------
Total Dipole Moment    :     -0.33708       0.60327      -0.10637
                        -----------------------------------------
Magnitude (a.u.)       :      0.69920
Magnitude (Debye)      :      1.77722

Rotational constants in cm-1:     4.338158     0.871503     0.831709
Rotational constants in MHz : 130054.714900 26126.989915 24934.022619

                             ****ORCA TERMINATED NORMALLY****
TOTAL RUN TIME: 0 days 0 hours 0 minutes 56 seconds 660 msec
