                         Program Version 4.1.2  - RELEASE  -
|  1> #Run DFT-D3 single point of the dimer
|  2> ! wB97X-D3 def2-TZVP TIGHTSCF  CHELPG PAL8
|  3>
|  4> %base "1_charges"
|  5>
|  6> %scf
|  7> MaxIter 1000
|  8> end
|  9> %output
| 10>   Print[ P_Mayer ] 1
| 11>   Print[ P_NatPop ] 1
| 12>   Print[ P_Hirshfeld ] 1
| 13>   Print[ P_Mulliken ] 1
| 14>   Print [ P_Loewdin ] 1
| 15> end
| 16>
| 17> * xyz 0 1
| 18>   C                      2.534369             -11.574455           6.413434
| 19>   O                      3.218862             -11.865611           7.607966
| 20>   H                      2.618041             -12.231765           8.221267
| 21>   H                      1.485938             -11.368769           6.529485
| 22>   H                      2.964330             -10.622359           6.062527
| 23>   H                      2.598938             -12.301785           5.619829
| 24> *
| 25>
| 26>                          ****END OF INPUT****

CARTESIAN COORDINATES (ANGSTROEM)
---------------------------------
  C      2.534369  -11.574455    6.413434
  O      3.218862  -11.865611    7.607966
  H      2.618041  -12.231765    8.221267
  H      1.485938  -11.368769    6.529485
  H      2.964330  -10.622359    6.062527
  H      2.598938  -12.301785    5.619829

 Total Charge           Charge          ....    0
 Multiplicity           Mult            ....    1
 Number of Electrons    NEL             ....   18
 Basis Dimension        Dim             ....   86

ORBITAL ENERGIES
----------------

  NO   OCC          E(Eh)            E(eV)
   0   2.0000     -19.229061      -523.2494
   1   2.0000     -10.309368      -280.5322
   2   2.0000      -1.143561       -31.1179
   3   2.0000      -0.801332       -21.8054
   4   2.0000      -0.621251       -16.9051
   5   2.0000      -0.542869       -14.7722
   6   2.0000      -0.523386       -14.2421
   7   2.0000      -0.434194       -11.8150
   8   2.0000      -0.376411       -10.2427
   9   0.0000       0.118733         3.2309
  10   0.0000       0.155906         4.2424
  11   0.0000       0.196260         5.3405
  12   0.0000       0.213215         5.8019
  13   0.0000       0.238105         6.4792

MULLIKEN ATOMIC CHARGES
-----------------------
   0 C :   -0.158053
   1 O :   -0.467794
   2 H :    0.310499
   3 H :    0.105109
   4 H :    0.108901
   5 H :    0.101338
Sum of atomic charges:    0.0000000

LOEWDIN ATOMIC CHARGES
----------------------
   0 C :   -0.387897
   1 O :   -0.056255
   2 H :    0.151500
   3 H :    0.092250
   4 H :    0.109165
   5 H :    0.091236

  Mayer bond orders larger than 0.1
B(  0-C ,  1-O ) :   1.0085 B(  0-C ,  3-H ) :   0.9804 B(  0-C ,  4-H ) :   0.9821
B(  0-C ,  5-H ) :   0.9691 B(  1-O ,  2-H ) :   0.9065

Dispersion correction           -0.000250570
FINAL SINGLE POINT ENERGY      -115.733522862805

DIPOLE MOMENT
-------------
                                X             Y             Z
Electronic contribution:      0.97460      -0.46731       1.53585
Nuclear contribution   :     -1.66294       0.35746      -1.59062
                        -----------------------------------------
Total Dipole Moment    :     -0.68834      -0.10985      -0.05477
                        -----------------------------------------
Magnitude (a.u.)       :      0.69920
Magnitude (Debye)      :      1.77723

Rotational constants in cm-1:     4.499398     0.832168     0.806546
Rotational constants in MHz : 134888.552861 24947.773990 24179.635492

                             ****ORCA TERMINATED NORMALLY****
TOTAL RUN TIME: 0 days 0 hours 0 minutes 43 seconds 167 msec
