                         Program Version 4.1.2  - RELEASE  -
|  1> #Run DFT-D3 single point of the dimer
|  2> ! wB97X-D3 def2-TZVP TIGHTSCF CHELPG PMODEL PAL8
|  3>
|  4> %base "11-90_DFT_AB"
|  5>
|  6> %scf
|  7> MaxIter 1000
|  8> end
|  9>
| 10> * xyz 0 1
| 11>   C                      5.805939             10.294651            -6.906468
| 12>   O                      5.983511             11.721538            -7.025334
| 13>   H                      5.096172             12.079015            -7.135066
| 14>   H                      5.223192             9.968730             -7.767834
| 15>   H                      6.785383             9.801651             -6.954070
| 16>   H                      5.389869             9.935072             -5.948628
| 17>   C                      6.543165             8.326145             -10.416435
| 18>   O                      6.659908             7.253888             -9.509501
| 19>   H                      5.909592             7.446161             -8.983774
| 20>   H                      6.614220             9.393741             -10.016194
| 21>   H                      7.383919             8.321079             -11.080022
| 22>   H                      5.626030             8.221112             -11.046252
| 23> *
| 24>
| 25> #Run DFT-D3 single point of the molecule with dimer basis set
| 26> $new_job
| 27> %base "11-90_DFT_A"
| 28> ! wB97X-D3 def2-TZVP TIGHTSCF CHELPG PMODEL
| 29>
| 30> %scf
| 31> MaxIter 1000
| 32> end
| 33>
| 34> * xyz 0 1
| 35>   C                      5.805939             10.294651            -6.906468
| 36>   O                      5.983511             11.721538            -7.025334
| 37>   H                      5.096172             12.079015            -7.135066
| 38>   H                      5.223192             9.968730             -7.767834
| 39>   H                      6.785383             9.801651             -6.954070
| 40>   H                      5.389869             9.935072             -5.948628
| 41>   C                    : 6.543165             8.326145             -10.416435
| 42>   O                    : 6.659908             7.253888             -9.509501
| 43>   H                    : 5.909592             7.446161             -8.983774
| 44>   H                    : 6.614220             9.393741             -10.016194
| 45>   H                    : 7.383919             8.321079             -11.080022
| 46>   H                    : 5.626030             8.221112             -11.046252
| 47> *
| 48>
| 49> #Run DFT-D3 single point of the particle with dimer basis set
| 50> $new_job
| 51> %base "11-90_DFT_B"
| 52> ! wB97X-D3 def2-TZVP TIGHTSCF CHELPG PMODEL
| 53>
| 54> %scf
| 55> MaxIter 1000
| 56> end
| 57>
| 58> * xyz 0 1
| 59>   C                    : 5.805939             10.294651            -6.906468
| 60>   O                    : 5.983511             11.721538            -7.025334
| 61>   H                    : 5.096172             12.079015            -7.135066
| 62>   H                    : 5.223192             9.968730             -7.767834
| 63>   H                    : 6.785383             9.801651             -6.954070
| 64>   H                    : 5.389869             9.935072             -5.948628
| 65>   C                      6.543165             8.326145             -10.416435
| 66>   O                      6.659908             7.253888             -9.509501
| 67>   H                      5.909592             7.446161             -8.983774
| 68>   H                      6.614220             9.393741             -10.016194
| 69>   H                      7.383919             8.321079             -11.080022
| 70>   H                      5.626030             8.221112             -11.046252
| 71> *
| 72>
| 73>                          ****END OF INPUT****
 Total Charge           Charge          ....    0
 Multiplicity           Mult            ....    1
 Number of Electrons    NEL             ....   36
Dispersion correction           -0.001609188
FINAL SINGLE POINT ENERGY      -231.465225894821
Dispersion correction           -0.000251328
FINAL SINGLE POINT ENERGY      -115.734734072721

CARTESIAN COORDINATES (ANGSTROEM)
---------------------------------
  C      5.805939   10.294651   -6.906468
  O      5.983511   11.721538   -7.025334
  H      5.096172   12.079015   -7.135066
  H      5.223192    9.968730   -7.767834
  H      6.785383    9.801651   -6.954070
  H      5.389869    9.935072   -5.948628
  C      6.543165    8.326145  -10.416435
  O      6.659908    7.253888   -9.509501
  H      5.909592    7.446161   -8.983774
  H      6.614220    9.393741  -10.016194
  H      7.383919    8.321079  -11.080022
  H      5.626030    8.221112  -11.046252

 Multiplicity           Mult            ....    1
 Number of Electrons    NEL             ....   18
 Basis Dimension        Dim             ....  172

ORBITAL ENERGIES
----------------

  NO   OCC          E(Eh)            E(eV)
   0   2.0000     -19.236654      -523.4560
   1   2.0000     -10.317909      -280.7646
   2   2.0000      -1.153055       -31.3762
   3   2.0000      -0.792465       -21.5641
   4   2.0000      -0.612065       -16.6551
   5   2.0000      -0.544905       -14.8276
   6   2.0000      -0.525985       -14.3128
   7   2.0000      -0.441727       -12.0200
   8   2.0000      -0.378845       -10.3089
   9   0.0000       0.076559         2.0833
  10   0.0000       0.127060         3.4575
  11   0.0000       0.146321         3.9816
  12   0.0000       0.172455         4.6927
  13   0.0000       0.186109         5.0643

MULLIKEN ATOMIC CHARGES
-----------------------
   0 C :   -0.000264
   1 O :   -0.000035
   2 H :   -0.000012
   3 H :   -0.000024
   4 H :   -0.000678
   5 H :    0.000044
   6 C :   -0.198577
   7 O :   -0.441131
   8 H :    0.312767
   9 H :    0.097454
  10 H :    0.122671
  11 H :    0.107784
Sum of atomic charges:    0.0000000

LOEWDIN ATOMIC CHARGES
----------------------
   0 C :   -0.003206
   1 O :   -0.000040
   2 H :   -0.000008
   3 H :   -0.001869
   4 H :   -0.000771
   5 H :   -0.000014
   6 C :   -0.407745
   7 O :   -0.051028
   8 H :    0.159599
   9 H :    0.103121
  10 H :    0.102089
  11 H :    0.099873

  Mayer bond orders larger than 0.1
B(  6-C ,  7-O ) :   1.0112 B(  6-C ,  9-H ) :   0.9625 B(  6-C , 10-H ) :   0.9777
B(  6-C , 11-H ) :   0.9781 B(  7-O ,  8-H ) :   0.9095

Dispersion correction           -0.000238481
FINAL SINGLE POINT ENERGY      -115.729603788180

DIPOLE MOMENT
-------------
                                X             Y             Z
Electronic contribution:      0.26856      -1.56910       1.22449
Nuclear contribution   :     -0.74156       2.06476      -1.25047
                        -----------------------------------------
Total Dipole Moment    :     -0.47300       0.49566      -0.02598
                        -----------------------------------------
Magnitude (a.u.)       :      0.68563
Magnitude (Debye)      :      1.74273

Rotational constants in cm-1:     4.273301     0.830403     0.809380
Rotational constants in MHz : 128110.327336 24894.870021 24264.587660

                             ****ORCA TERMINATED NORMALLY****
TOTAL RUN TIME: 0 days 0 hours 1 minutes 10 seconds 938 msec
