                         Program Version 4.1.2  - RELEASE  -
|  1> #Run DFT-D3 single point of the dimer
|  2> ! wB97X-D3 def2-TZVP TIGHTSCF CHELPG PMODEL PAL8
|  3>
|  4> %base "2-29_DFT_AB"
|  5>
|  6> %scf
|  7> MaxIter 1000
|  8> end
|  9>
| 10> * xyz 0 1
| 11>   C                      5.916145             7.599752             -3.115480
| 12>   O                      6.303187             6.405109             -3.797141
| 13>   H                      6.313995             5.742929             -3.113214
| 14>   H                      6.562852             7.866482             -2.246742
| 15>   H                      5.963492             8.428625             -3.817606
| 16>   H                      4.933177             7.588969             -2.693862
| 17>   C                      8.250343             5.705359             -1.178994
| 18>   O                      7.781973             4.399579             -0.935683
| 19>   H                      6.990076             4.528335             -0.441139
| 20>   H                      7.784217             6.542154             -0.621818
| 21>   H                      9.292746             5.743374             -0.911809
| 22>   H                      8.314528             5.887828             -2.257205
| 23> *
| 24>
| 25> #Run DFT-D3 single point of the molecule with dimer basis set
| 26> $new_job
| 27> %base "2-29_DFT_A"
| 28> ! wB97X-D3 def2-TZVP TIGHTSCF CHELPG PMODEL
| 29>
| 30> %scf
| 31> MaxIter 1000
| 32> end
| 33>
| 34> * xyz 0 1
| 35>   C                      5.916145             7.599752             -3.115480
| 36>   O                      6.303187             6.405109             -3.797141
| 37>   H                      6.313995             5.742929             -3.113214
| 38>   H                      6.562852             7.866482             -2.246742
| 39>   H                      5.963492             8.428625             -3.817606
| 40>   H                      4.933177             7.588969             -2.693862
| 41>   C                    : 8.250343             5.705359             -1.178994
| 42>   O                    : 7.781973             4.399579             -0.935683
| 43>   H                    : 6.990076             4.528335             -0.441139
| 44>   H                    : 7.784217             6.542154             -0.621818
| 45>   H                    : 9.292746             5.743374             -0.911809
| 46>   H                    : 8.314528             5.887828             -2.257205
| 47> *
| 48>
| 49> #Run DFT-D3 single point of the particle with dimer basis set
| 50> $new_job
| 51> %base "2-29_DFT_B"
| 52> ! wB97X-D3 def2-TZVP TIGHTSCF CHELPG PMODEL
| 53>
| 54> %scf
| 55> MaxIter 1000
| 56> end
| 57>
| 58> * xyz 0 1
| 59>   C                    : 5.916145             7.599752             -3.115480
| 60>   O                    : 6.303187             6.405109             -3.797141
| 61>   H                    : 6.313995             5.742929             -3.113214
| 62>   H                    : 6.562852             7.866482             -2.246742
| 63>   H                    : 5.963492             8.428625             -3.817606
| 64>   H                    : 4.933177             7.588969             -2.693862
| 65>   C                      8.250343             5.705359             -1.178994
| 66>   O                      7.781973             4.399579             -0.935683
| 67>   H                      6.990076             4.528335             -0.441139
| 68>   H                      7.784217             6.542154             -0.621818
| 69>   H                      9.292746             5.743374             -0.911809
| 70>   H                      8.314528             5.887828             -2.257205
| 71> *
| 72>
| 73>                          ****END OF INPUT****
 Total Charge           Charge          ....    0
 Multiplicity           Mult            ....    1
 Number of Electrons    NEL             ....   36
Dispersion correction           -0.002184616
FINAL SINGLE POINT ENERGY      -231.468192983468
Dispersion correction           -0.000247121
FINAL SINGLE POINT ENERGY      -115.735668743889

CARTESIAN COORDINATES (ANGSTROEM)
---------------------------------
  C      5.916145    7.599752   -3.115480
  O      6.303187    6.405109   -3.797141
  H      6.313995    5.742929   -3.113214
  H      6.562852    7.866482   -2.246742
  H      5.963492    8.428625   -3.817606
  H      4.933177    7.588969   -2.693862
  C      8.250343    5.705359   -1.178994
  O      7.781973    4.399579   -0.935683
  H      6.990076    4.528335   -0.441139
  H      7.784217    6.542154   -0.621818
  H      9.292746    5.743374   -0.911809
  H      8.314528    5.887828   -2.257205

 Multiplicity           Mult            ....    1
 Number of Electrons    NEL             ....   18
 Basis Dimension        Dim             ....  172

ORBITAL ENERGIES
----------------

  NO   OCC          E(Eh)            E(eV)
   0   2.0000     -19.232248      -523.3361
   1   2.0000     -10.310941      -280.5750
   2   2.0000      -1.145364       -31.1669
   3   2.0000      -0.797339       -21.6967
   4   2.0000      -0.615642       -16.7525
   5   2.0000      -0.536244       -14.5919
   6   2.0000      -0.528918       -14.3926
   7   2.0000      -0.445338       -12.1183
   8   2.0000      -0.370721       -10.0878
   9   0.0000       0.085770         2.3339
  10   0.0000       0.123665         3.3651
  11   0.0000       0.155995         4.2448
  12   0.0000       0.164469         4.4754
  13   0.0000       0.193744         5.2720

MULLIKEN ATOMIC CHARGES
-----------------------
   0 C :    0.000061
   1 O :   -0.000433
   2 H :    0.002293
   3 H :   -0.004765
   4 H :   -0.000038
   5 H :   -0.000513
   6 C :   -0.182884
   7 O :   -0.457662
   8 H :    0.313889
   9 H :    0.109818
  10 H :    0.114918
  11 H :    0.105317
Sum of atomic charges:   -0.0000000

LOEWDIN ATOMIC CHARGES
----------------------
   0 C :   -0.007605
   1 O :   -0.004296
   2 H :   -0.007359
   3 H :   -0.006170
   4 H :   -0.000059
   5 H :   -0.000096
   6 C :   -0.387944
   7 O :   -0.057587
   8 H :    0.161307
   9 H :    0.104438
  10 H :    0.099035
  11 H :    0.106336

  Mayer bond orders larger than 0.1
B(  6-C ,  7-O ) :   1.0115 B(  6-C ,  9-H ) :   0.9767 B(  6-C , 10-H ) :   0.9786
B(  6-C , 11-H ) :   0.9817 B(  7-O ,  8-H ) :   0.9061

Dispersion correction           -0.000249600
FINAL SINGLE POINT ENERGY      -115.731477843887

DIPOLE MOMENT
-------------
                                X             Y             Z
Electronic contribution:     -0.67165      -1.76254       0.30341
Nuclear contribution   :      0.36613       2.33892      -0.05739
                        -----------------------------------------
Total Dipole Moment    :     -0.30552       0.57638       0.24601
                        -----------------------------------------
Magnitude (a.u.)       :      0.69720
Magnitude (Debye)      :      1.77213

Rotational constants in cm-1:     4.373436     0.841638     0.801079
Rotational constants in MHz : 131112.315626 25231.678362 24015.731972

                             ****ORCA TERMINATED NORMALLY****
TOTAL RUN TIME: 0 days 0 hours 5 minutes 40 seconds 783 msec
