                         Program Version 4.1.2  - RELEASE  -
|  1> #Run DFT-D3 single point of the dimer
|  2> ! wB97X-D3 def2-TZVP TIGHTSCF CHELPG PMODEL PAL8
|  3>
|  4> %base "9-127_DFT_AB"
|  5>
|  6> %scf
|  7> MaxIter 1000
|  8> end
|  9>
| 10> * xyz 0 1
| 11>   C                      -1.356228            -0.340846            0.709262
| 12>   O                      -0.810618            -0.266674            -0.606625
| 13>   H                      -1.477171            -0.764683            -1.013376
| 14>   H                      -0.663269            0.163702             1.446102
| 15>   H                      -2.321533            0.255748             0.727861
| 16>   H                      -1.548935            -1.338380            1.075579
| 17>   C                      -2.027038            2.309967             -2.395359
| 18>   O                      -0.889161            1.571770             -2.714004
| 19>   H                      -0.947956            0.883920             -2.081068
| 20>   H                      -1.829656            3.063013             -1.589920
| 21>   H                      -2.405176            2.935118             -3.259349
| 22>   H                      -2.871821            1.686883             -2.115363
| 23> *
| 24>
| 25> #Run DFT-D3 single point of the molecule with dimer basis set
| 26> $new_job
| 27> %base "9-127_DFT_A"
| 28> ! wB97X-D3 def2-TZVP TIGHTSCF CHELPG PMODEL
| 29>
| 30> %scf
| 31> MaxIter 1000
| 32> end
| 33>
| 34> * xyz 0 1
| 35>   C                      -1.356228            -0.340846            0.709262
| 36>   O                      -0.810618            -0.266674            -0.606625
| 37>   H                      -1.477171            -0.764683            -1.013376
| 38>   H                      -0.663269            0.163702             1.446102
| 39>   H                      -2.321533            0.255748             0.727861
| 40>   H                      -1.548935            -1.338380            1.075579
| 41>   C                    : -2.027038            2.309967             -2.395359
| 42>   O                    : -0.889161            1.571770             -2.714004
| 43>   H                    : -0.947956            0.883920             -2.081068
| 44>   H                    : -1.829656            3.063013             -1.589920
| 45>   H                    : -2.405176            2.935118             -3.259349
| 46>   H                    : -2.871821            1.686883             -2.115363
| 47> *
| 48>
| 49> #Run DFT-D3 single point of the particle with dimer basis set
| 50> $new_job
| 51> %base "9-127_DFT_B"
| 52> ! wB97X-D3 def2-TZVP TIGHTSCF CHELPG PMODEL
| 53>
| 54> %scf
| 55> MaxIter 1000
| 56> end
| 57>
| 58> * xyz 0 1
| 59>   C                    : -1.356228            -0.340846            0.709262
| 60>   O                    : -0.810618            -0.266674            -0.606625
| 61>   H                    : -1.477171            -0.764683            -1.013376
| 62>   H                    : -0.663269            0.163702             1.446102
| 63>   H                    : -2.321533            0.255748             0.727861
| 64>   H                    : -1.548935            -1.338380            1.075579
| 65>   C                      -2.027038            2.309967             -2.395359
| 66>   O                      -0.889161            1.571770             -2.714004
| 67>   H                      -0.947956            0.883920             -2.081068
| 68>   H                      -1.829656            3.063013             -1.589920
| 69>   H                      -2.405176            2.935118             -3.259349
| 70>   H                      -2.871821            1.686883             -2.115363
| 71> *
| 72>
| 73>                          ****END OF INPUT****
 Total Charge           Charge          ....    0
 Multiplicity           Mult            ....    1
 Number of Electrons    NEL             ....   36
Dispersion correction           -0.001923255
FINAL SINGLE POINT ENERGY      -231.466052736403
Dispersion correction           -0.000222809
FINAL SINGLE POINT ENERGY      -115.729531942212

CARTESIAN COORDINATES (ANGSTROEM)
---------------------------------
  C     -1.356228   -0.340846    0.709262
  O     -0.810618   -0.266674   -0.606625
  H     -1.477171   -0.764683   -1.013376
  H     -0.663269    0.163702    1.446102
  H     -2.321533    0.255748    0.727861
  H     -1.548935   -1.338380    1.075579
  C     -2.027038    2.309967   -2.395359
  O     -0.889161    1.571770   -2.714004
  H     -0.947956    0.883920   -2.081068
  H     -1.829656    3.063013   -1.589920
  H     -2.405176    2.935118   -3.259349
  H     -2.871821    1.686883   -2.115363

 Multiplicity           Mult            ....    1
 Number of Electrons    NEL             ....   18
 Basis Dimension        Dim             ....  172

ORBITAL ENERGIES
----------------

  NO   OCC          E(Eh)            E(eV)
   0   2.0000     -19.234103      -523.3865
   1   2.0000     -10.317744      -280.7601
   2   2.0000      -1.155392       -31.4398
   3   2.0000      -0.790154       -21.5012
   4   2.0000      -0.618737       -16.8367
   5   2.0000      -0.543451       -14.7881
   6   2.0000      -0.529583       -14.4107
   7   2.0000      -0.438240       -11.9251
   8   2.0000      -0.375399       -10.2151
   9   0.0000       0.069366         1.8875
  10   0.0000       0.134813         3.6685
  11   0.0000       0.144515         3.9325
  12   0.0000       0.170276         4.6335
  13   0.0000       0.193452         5.2641

MULLIKEN ATOMIC CHARGES
-----------------------
   0 C :   -0.000491
   1 O :   -0.005354
   2 H :   -0.001546
   3 H :    0.000040
   4 H :   -0.000218
   5 H :    0.000026
   6 C :   -0.187948
   7 O :   -0.444045
   8 H :    0.314488
   9 H :    0.099870
  10 H :    0.116792
  11 H :    0.108385
Sum of atomic charges:   -0.0000000

LOEWDIN ATOMIC CHARGES
----------------------
   0 C :   -0.002326
   1 O :   -0.022744
   2 H :   -0.004194
   3 H :   -0.000047
   4 H :   -0.000386
   5 H :   -0.000041
   6 C :   -0.413127
   7 O :   -0.032498
   8 H :    0.170297
   9 H :    0.098379
  10 H :    0.112737
  11 H :    0.093951

  Mayer bond orders larger than 0.1
B(  6-C ,  7-O ) :   1.0005 B(  6-C ,  9-H ) :   0.9736 B(  6-C , 10-H ) :   0.9736
B(  6-C , 11-H ) :   0.9788 B(  7-O ,  8-H ) :   0.9120

Dispersion correction           -0.000231062
FINAL SINGLE POINT ENERGY      -115.732348465327

DIPOLE MOMENT
-------------
                                X             Y             Z
Electronic contribution:      1.60969      -1.00034      -0.53793
Nuclear contribution   :     -2.07981       0.82781       1.03383
                        -----------------------------------------
Total Dipole Moment    :     -0.47012      -0.17253       0.49590
                        -----------------------------------------
Magnitude (a.u.)       :      0.70477
Magnitude (Debye)      :      1.79138

Rotational constants in cm-1:     4.251383     0.848146     0.819414
Rotational constants in MHz : 127453.251872 25426.775136 24565.406640

                             ****ORCA TERMINATED NORMALLY****
TOTAL RUN TIME: 0 days 0 hours 0 minutes 46 seconds 601 msec
