                         Program Version 4.1.2  - RELEASE  -
|  1> #Run DFT-D3 single point of the dimer
|  2> ! wB97X-D3 def2-TZVP TIGHTSCF CHELPG PMODEL PAL8
|  3>
|  4> %base "10-142_DFT_AB"
|  5>
|  6> %scf
|  7> MaxIter 1000
|  8> end
|  9>
| 10> * xyz 0 1
| 11>   C                      -3.729851            3.038293             4.185323
| 12>   O                      -3.523052            2.471416             5.433180
| 13>   H                      -4.135422            2.762021             6.113348
| 14>   H                      -4.740345            3.461552             4.070275
| 15>   H                      -3.093136            3.884884             4.062776
| 16>   H                      -3.567683            2.320354             3.352861
| 17>   C                      0.385960             1.349603             7.814121
| 18>   O                      -0.814555            1.056607             8.403355
| 19>   H                      -1.465594            1.256166             7.692833
| 20>   H                      1.205564             1.115922             8.515013
| 21>   H                      0.511018             0.734252             6.885752
| 22>   H                      0.507898             2.408019             7.581483
| 23> *
| 24>
| 25> #Run DFT-D3 single point of the molecule with dimer basis set
| 26> $new_job
| 27> %base "10-142_DFT_A"
| 28> ! wB97X-D3 def2-TZVP TIGHTSCF CHELPG PMODEL
| 29>
| 30> %scf
| 31> MaxIter 1000
| 32> end
| 33>
| 34> * xyz 0 1
| 35>   C                      -3.729851            3.038293             4.185323
| 36>   O                      -3.523052            2.471416             5.433180
| 37>   H                      -4.135422            2.762021             6.113348
| 38>   H                      -4.740345            3.461552             4.070275
| 39>   H                      -3.093136            3.884884             4.062776
| 40>   H                      -3.567683            2.320354             3.352861
| 41>   C                    : 0.385960             1.349603             7.814121
| 42>   O                    : -0.814555            1.056607             8.403355
| 43>   H                    : -1.465594            1.256166             7.692833
| 44>   H                    : 1.205564             1.115922             8.515013
| 45>   H                    : 0.511018             0.734252             6.885752
| 46>   H                    : 0.507898             2.408019             7.581483
| 47> *
| 48>
| 49> #Run DFT-D3 single point of the particle with dimer basis set
| 50> $new_job
| 51> %base "10-142_DFT_B"
| 52> ! wB97X-D3 def2-TZVP TIGHTSCF CHELPG PMODEL
| 53>
| 54> %scf
| 55> MaxIter 1000
| 56> end
| 57>
| 58> * xyz 0 1
| 59>   C                    : -3.729851            3.038293             4.185323
| 60>   O                    : -3.523052            2.471416             5.433180
| 61>   H                    : -4.135422            2.762021             6.113348
| 62>   H                    : -4.740345            3.461552             4.070275
| 63>   H                    : -3.093136            3.884884             4.062776
| 64>   H                    : -3.567683            2.320354             3.352861
| 65>   C                      0.385960             1.349603             7.814121
| 66>   O                      -0.814555            1.056607             8.403355
| 67>   H                      -1.465594            1.256166             7.692833
| 68>   H                      1.205564             1.115922             8.515013
| 69>   H                      0.511018             0.734252             6.885752
| 70>   H                      0.507898             2.408019             7.581483
| 71> *
| 72>
| 73>                          ****END OF INPUT****
 Total Charge           Charge          ....    0
 Multiplicity           Mult            ....    1
 Number of Electrons    NEL             ....   36
Dispersion correction           -0.000871028
FINAL SINGLE POINT ENERGY      -231.469701446483
Dispersion correction           -0.000246681
FINAL SINGLE POINT ENERGY      -115.733358692777

CARTESIAN COORDINATES (ANGSTROEM)
---------------------------------
  C     -3.729851    3.038293    4.185323
  O     -3.523052    2.471416    5.433180
  H     -4.135422    2.762021    6.113348
  H     -4.740345    3.461552    4.070275
  H     -3.093136    3.884884    4.062776
  H     -3.567683    2.320354    3.352861
  C      0.385960    1.349603    7.814121
  O     -0.814555    1.056607    8.403355
  H     -1.465594    1.256166    7.692833
  H      1.205564    1.115922    8.515013
  H      0.511018    0.734252    6.885752
  H      0.507898    2.408019    7.581483

 Multiplicity           Mult            ....    1
 Number of Electrons    NEL             ....   18
 Basis Dimension        Dim             ....  172

ORBITAL ENERGIES
----------------

  NO   OCC          E(Eh)            E(eV)
   0   2.0000     -19.233996      -523.3836
   1   2.0000     -10.311646      -280.5942
   2   2.0000      -1.150914       -31.3180
   3   2.0000      -0.786042       -21.3893
   4   2.0000      -0.614891       -16.7320
   5   2.0000      -0.549459       -14.9515
   6   2.0000      -0.530478       -14.4350
   7   2.0000      -0.431964       -11.7543
   8   2.0000      -0.371315       -10.1040
   9   0.0000       0.073208         1.9921
  10   0.0000       0.111339         3.0297
  11   0.0000       0.150355         4.0914
  12   0.0000       0.175501         4.7756
  13   0.0000       0.194412         5.2902

MULLIKEN ATOMIC CHARGES
-----------------------
   0 C :   -0.000063
   1 O :   -0.000150
   2 H :   -0.000072
   3 H :    0.000002
   4 H :   -0.000001
   5 H :    0.000002
   6 C :   -0.161226
   7 O :   -0.454721
   8 H :    0.317082
   9 H :    0.112982
  10 H :    0.091164
  11 H :    0.094999
Sum of atomic charges:   -0.0000000

LOEWDIN ATOMIC CHARGES
----------------------
   0 C :   -0.000038
   1 O :   -0.000500
   2 H :   -0.000193
   3 H :   -0.000001
   4 H :   -0.000001
   5 H :   -0.000001
   6 C :   -0.432288
   7 O :   -0.052657
   8 H :    0.189907
   9 H :    0.109395
  10 H :    0.096566
  11 H :    0.089811

  Mayer bond orders larger than 0.1
B(  6-C ,  7-O ) :   1.0073 B(  6-C ,  9-H ) :   0.9724 B(  6-C , 10-H ) :   0.9826
B(  6-C , 11-H ) :   0.9724 B(  7-O ,  8-H ) :   0.8974

Dispersion correction           -0.000211844
FINAL SINGLE POINT ENERGY      -115.733564810801

DIPOLE MOMENT
-------------
                                X             Y             Z
Electronic contribution:     -1.56566      -0.41045       0.94783
Nuclear contribution   :      1.59721       0.64188      -1.57628
                        -----------------------------------------
Total Dipole Moment    :      0.03156       0.23143      -0.62845
                        -----------------------------------------
Magnitude (a.u.)       :      0.67045
Magnitude (Debye)      :      1.70416

Rotational constants in cm-1:     4.141636     0.880183     0.845086
Rotational constants in MHz : 124163.134596 26387.211984 25335.043829

                             ****ORCA TERMINATED NORMALLY****
TOTAL RUN TIME: 0 days 0 hours 1 minutes 3 seconds 409 msec
