                         Program Version 4.1.2  - RELEASE  -
|  1> #Run DFT-D3 single point of the dimer
|  2> ! wB97X-D3 def2-TZVP TIGHTSCF CHELPG PMODEL PAL8
|  3>
|  4> %base "20-46_DFT_AB"
|  5>
|  6> %scf
|  7> MaxIter 1000
|  8> end
|  9>
| 10> * xyz 0 1
| 11>   C                      10.369788            -1.022027            1.137112
| 12>   O                      9.385676             -0.662923            2.037067
| 13>   H                      8.915815             -1.406507            2.396030
| 14>   H                      9.951602             -1.529467            0.290434
| 15>   H                      10.979370            -0.132618            0.842871
| 16>   H                      10.919377            -1.856796            1.581003
| 17>   C                      11.304708            -2.280739            5.823604
| 18>   O                      10.545080            -1.680736            4.821670
| 19>   H                      9.908639             -1.070730            5.274963
| 20>   H                      11.870443            -1.441987            6.287497
| 21>   H                      10.662411            -2.786348            6.596950
| 22>   H                      12.060004            -3.023908            5.366135
| 23> *
| 24>
| 25> #Run DFT-D3 single point of the molecule with dimer basis set
| 26> $new_job
| 27> %base "20-46_DFT_A"
| 28> ! wB97X-D3 def2-TZVP TIGHTSCF CHELPG PMODEL
| 29>
| 30> %scf
| 31> MaxIter 1000
| 32> end
| 33>
| 34> * xyz 0 1
| 35>   C                      10.369788            -1.022027            1.137112
| 36>   O                      9.385676             -0.662923            2.037067
| 37>   H                      8.915815             -1.406507            2.396030
| 38>   H                      9.951602             -1.529467            0.290434
| 39>   H                      10.979370            -0.132618            0.842871
| 40>   H                      10.919377            -1.856796            1.581003
| 41>   C                    : 11.304708            -2.280739            5.823604
| 42>   O                    : 10.545080            -1.680736            4.821670
| 43>   H                    : 9.908639             -1.070730            5.274963
| 44>   H                    : 11.870443            -1.441987            6.287497
| 45>   H                    : 10.662411            -2.786348            6.596950
| 46>   H                    : 12.060004            -3.023908            5.366135
| 47> *
| 48>
| 49> #Run DFT-D3 single point of the particle with dimer basis set
| 50> $new_job
| 51> %base "20-46_DFT_B"
| 52> ! wB97X-D3 def2-TZVP TIGHTSCF CHELPG PMODEL
| 53>
| 54> %scf
| 55> MaxIter 1000
| 56> end
| 57>
| 58> * xyz 0 1
| 59>   C                    : 10.369788            -1.022027            1.137112
| 60>   O                    : 9.385676             -0.662923            2.037067
| 61>   H                    : 8.915815             -1.406507            2.396030
| 62>   H                    : 9.951602             -1.529467            0.290434
| 63>   H                    : 10.979370            -0.132618            0.842871
| 64>   H                    : 10.919377            -1.856796            1.581003
| 65>   C                      11.304708            -2.280739            5.823604
| 66>   O                      10.545080            -1.680736            4.821670
| 67>   H                      9.908639             -1.070730            5.274963
| 68>   H                      11.870443            -1.441987            6.287497
| 69>   H                      10.662411            -2.786348            6.596950
| 70>   H                      12.060004            -3.023908            5.366135
| 71> *
| 72>
| 73>                          ****END OF INPUT****
 Total Charge           Charge          ....    0
 Multiplicity           Mult            ....    1
 Number of Electrons    NEL             ....   36
Dispersion correction           -0.001415168
FINAL SINGLE POINT ENERGY      -231.462508251178
Dispersion correction           -0.000216196
FINAL SINGLE POINT ENERGY      -115.730192115345

CARTESIAN COORDINATES (ANGSTROEM)
---------------------------------
  C     10.369788   -1.022027    1.137112
  O      9.385676   -0.662923    2.037067
  H      8.915815   -1.406507    2.396030
  H      9.951602   -1.529467    0.290434
  H     10.979370   -0.132618    0.842871
  H     10.919377   -1.856796    1.581003
  C     11.304708   -2.280739    5.823604
  O     10.545080   -1.680736    4.821670
  H      9.908639   -1.070730    5.274963
  H     11.870443   -1.441987    6.287497
  H     10.662411   -2.786348    6.596950
  H     12.060004   -3.023908    5.366135

 Multiplicity           Mult            ....    1
 Number of Electrons    NEL             ....   18
 Basis Dimension        Dim             ....  172

ORBITAL ENERGIES
----------------

  NO   OCC          E(Eh)            E(eV)
   0   2.0000     -19.232139      -523.3331
   1   2.0000     -10.322988      -280.9028
   2   2.0000      -1.139101       -30.9965
   3   2.0000      -0.781147       -21.2561
   4   2.0000      -0.607817       -16.5395
   5   2.0000      -0.544117       -14.8062
   6   2.0000      -0.525551       -14.3010
   7   2.0000      -0.428944       -11.6722
   8   2.0000      -0.368548       -10.0287
   9   0.0000       0.095818         2.6073
  10   0.0000       0.117993         3.2107
  11   0.0000       0.150306         4.0900
  12   0.0000       0.188395         5.1265
  13   0.0000       0.189336         5.1521

MULLIKEN ATOMIC CHARGES
-----------------------
   0 C :   -0.000031
   1 O :    0.001651
   2 H :   -0.003872
   3 H :   -0.000249
   4 H :    0.000103
   5 H :   -0.002847
   6 C :   -0.165746
   7 O :   -0.464542
   8 H :    0.317458
   9 H :    0.099662
  10 H :    0.098618
  11 H :    0.119795
Sum of atomic charges:   -0.0000000

LOEWDIN ATOMIC CHARGES
----------------------
   0 C :   -0.003362
   1 O :   -0.002480
   2 H :   -0.004180
   3 H :   -0.000046
   4 H :   -0.000045
   5 H :   -0.001622
   6 C :   -0.416227
   7 O :   -0.074696
   8 H :    0.190114
   9 H :    0.096712
  10 H :    0.096615
  11 H :    0.119216

  Mayer bond orders larger than 0.1
B(  6-C ,  7-O ) :   0.9901 B(  6-C ,  9-H ) :   0.9841 B(  6-C , 10-H ) :   0.9689
B(  6-C , 11-H ) :   0.9683 B(  7-O ,  8-H ) :   0.8907

Dispersion correction           -0.000227015
FINAL SINGLE POINT ENERGY      -115.730850851336

DIPOLE MOMENT
-------------
                                X             Y             Z
Electronic contribution:     -0.93509       0.62211      -1.40077
Nuclear contribution   :      0.82978      -0.46412       2.05943
                        -----------------------------------------
Total Dipole Moment    :     -0.10531       0.15799       0.65865
                        -----------------------------------------
Magnitude (a.u.)       :      0.68548
Magnitude (Debye)      :      1.74234

Rotational constants in cm-1:     3.955193     0.853972     0.816656
Rotational constants in MHz : 118573.712265 25601.438771 24482.729823

                             ****ORCA TERMINATED NORMALLY****
TOTAL RUN TIME: 0 days 0 hours 1 minutes 8 seconds 293 msec
