                         Program Version 4.1.2  - RELEASE  -
|  1> #Run DFT-D3 single point of the dimer
|  2> ! wB97X-D3 def2-TZVP TIGHTSCF CHELPG PMODEL PAL8
|  3>
|  4> %base "13-60_DFT_AB"
|  5>
|  6> %scf
|  7> MaxIter 1000
|  8> end
|  9>
| 10> * xyz 0 1
| 11>   C                      6.579677             -4.656054            2.098122
| 12>   O                      6.418017             -5.253259            3.379541
| 13>   H                      5.507121             -5.599913            3.333520
| 14>   H                      5.924402             -3.782596            1.864666
| 15>   H                      7.523478             -4.087973            1.999012
| 16>   H                      6.439044             -5.427651            1.315982
| 17>   C                      6.086307             -8.339000            -1.950974
| 18>   O                      7.119211             -9.239033            -2.344616
| 19>   H                      7.924299             -8.996173            -1.920066
| 20>   H                      5.204355             -8.539009            -2.582275
| 21>   H                      5.796177             -8.560167            -0.931467
| 22>   H                      6.260960             -7.216122            -2.022520
| 23> *
| 24>
| 25> #Run DFT-D3 single point of the molecule with dimer basis set
| 26> $new_job
| 27> %base "13-60_DFT_A"
| 28> ! wB97X-D3 def2-TZVP TIGHTSCF CHELPG PMODEL
| 29>
| 30> %scf
| 31> MaxIter 1000
| 32> end
| 33>
| 34> * xyz 0 1
| 35>   C                      6.579677             -4.656054            2.098122
| 36>   O                      6.418017             -5.253259            3.379541
| 37>   H                      5.507121             -5.599913            3.333520
| 38>   H                      5.924402             -3.782596            1.864666
| 39>   H                      7.523478             -4.087973            1.999012
| 40>   H                      6.439044             -5.427651            1.315982
| 41>   C                    : 6.086307             -8.339000            -1.950974
| 42>   O                    : 7.119211             -9.239033            -2.344616
| 43>   H                    : 7.924299             -8.996173            -1.920066
| 44>   H                    : 5.204355             -8.539009            -2.582275
| 45>   H                    : 5.796177             -8.560167            -0.931467
| 46>   H                    : 6.260960             -7.216122            -2.022520
| 47> *
| 48>
| 49> #Run DFT-D3 single point of the particle with dimer basis set
| 50> $new_job
| 51> %base "13-60_DFT_B"
| 52> ! wB97X-D3 def2-TZVP TIGHTSCF CHELPG PMODEL
| 53>
| 54> %scf
| 55> MaxIter 1000
| 56> end
| 57>
| 58> * xyz 0 1
| 59>   C                    : 6.579677             -4.656054            2.098122
| 60>   O                    : 6.418017             -5.253259            3.379541
| 61>   H                    : 5.507121             -5.599913            3.333520
| 62>   H                    : 5.924402             -3.782596            1.864666
| 63>   H                    : 7.523478             -4.087973            1.999012
| 64>   H                    : 6.439044             -5.427651            1.315982
| 65>   C                      6.086307             -8.339000            -1.950974
| 66>   O                      7.119211             -9.239033            -2.344616
| 67>   H                      7.924299             -8.996173            -1.920066
| 68>   H                      5.204355             -8.539009            -2.582275
| 69>   H                      5.796177             -8.560167            -0.931467
| 70>   H                      6.260960             -7.216122            -2.022520
| 71> *
| 72>
| 73>                          ****END OF INPUT****
 Total Charge           Charge          ....    0
 Multiplicity           Mult            ....    1
 Number of Electrons    NEL             ....   36
Dispersion correction           -0.000729635
FINAL SINGLE POINT ENERGY      -231.463800166730
Dispersion correction           -0.000250269
FINAL SINGLE POINT ENERGY      -115.729825306692

CARTESIAN COORDINATES (ANGSTROEM)
---------------------------------
  C      6.579677   -4.656054    2.098122
  O      6.418017   -5.253259    3.379541
  H      5.507121   -5.599913    3.333520
  H      5.924402   -3.782596    1.864666
  H      7.523478   -4.087973    1.999012
  H      6.439044   -5.427651    1.315982
  C      6.086307   -8.339000   -1.950974
  O      7.119211   -9.239033   -2.344616
  H      7.924299   -8.996173   -1.920066
  H      5.204355   -8.539009   -2.582275
  H      5.796177   -8.560167   -0.931467
  H      6.260960   -7.216122   -2.022520

 Multiplicity           Mult            ....    1
 Number of Electrons    NEL             ....   18
 Basis Dimension        Dim             ....  172

ORBITAL ENERGIES
----------------

  NO   OCC          E(Eh)            E(eV)
   0   2.0000     -19.230920      -523.2999
   1   2.0000     -10.318510      -280.7809
   2   2.0000      -1.136736       -30.9322
   3   2.0000      -0.796366       -21.6702
   4   2.0000      -0.611573       -16.6417
   5   2.0000      -0.538870       -14.6634
   6   2.0000      -0.521255       -14.1841
   7   2.0000      -0.434517       -11.8238
   8   2.0000      -0.375800       -10.2260
   9   0.0000       0.081751         2.2246
  10   0.0000       0.117661         3.2017
  11   0.0000       0.144905         3.9431
  12   0.0000       0.161255         4.3880
  13   0.0000       0.190198         5.1756

MULLIKEN ATOMIC CHARGES
-----------------------
   0 C :    0.000131
   1 O :   -0.000001
   2 H :   -0.000004
   3 H :   -0.000005
   4 H :   -0.000004
   5 H :   -0.000376
   6 C :   -0.168177
   7 O :   -0.472668
   8 H :    0.311923
   9 H :    0.121992
  10 H :    0.105210
  11 H :    0.101979
Sum of atomic charges:   -0.0000000

LOEWDIN ATOMIC CHARGES
----------------------
   0 C :   -0.000036
   1 O :   -0.000001
   2 H :   -0.000001
   3 H :   -0.000001
   4 H :   -0.000001
   5 H :   -0.000155
   6 C :   -0.385448
   7 O :   -0.074294
   8 H :    0.155304
   9 H :    0.111195
  10 H :    0.091760
  11 H :    0.101677

  Mayer bond orders larger than 0.1
B(  6-C ,  7-O ) :   0.9994 B(  6-C ,  9-H ) :   0.9737 B(  6-C , 10-H ) :   0.9790
B(  6-C , 11-H ) :   0.9655 B(  7-O ,  8-H ) :   0.9027

Dispersion correction           -0.000269809
FINAL SINGLE POINT ENERGY      -115.733829722049

DIPOLE MOMENT
-------------
                                X             Y             Z
Electronic contribution:      1.33290      -1.21377      -0.58994
Nuclear contribution   :     -1.23881       1.71629       1.01957
                        -----------------------------------------
Total Dipole Moment    :      0.09409       0.50252       0.42963
                        -----------------------------------------
Magnitude (a.u.)       :      0.66780
Magnitude (Debye)      :      1.69742

Rotational constants in cm-1:     4.339198     0.809912     0.783265
Rotational constants in MHz : 130085.888552 24280.542753 23481.708570

                             ****ORCA TERMINATED NORMALLY****
TOTAL RUN TIME: 0 days 0 hours 1 minutes 9 seconds 386 msec
