                         Program Version 4.1.2  - RELEASE  -
|  1> #Run DFT-D3 single point of the dimer
|  2> ! wB97X-D3 def2-TZVP TIGHTSCF CHELPG PMODEL PAL8
|  3>
|  4> %base "11-157_DFT_AB"
|  5>
|  6> %scf
|  7> MaxIter 1000
|  8> end
|  9>
| 10> * xyz 0 1
| 11>   C                      -6.890285            -0.651512            -6.912674
| 12>   O                      -7.229241            -1.200924            -5.604162
| 13>   H                      -8.080898            -1.626156            -5.709926
| 14>   H                      -6.749683            -1.458813            -7.604666
| 15>   H                      -7.653449            0.054767             -7.336818
| 16>   H                      -5.976611            -0.051108            -6.957047
| 17>   C                      -9.377443            -0.722194            -1.786221
| 18>   O                      -9.024279            -1.231015            -3.033294
| 19>   H                      -8.088597            -1.123171            -3.081556
| 20>   H                      -9.541488            0.328002             -1.906169
| 21>   H                      -10.284769           -1.261342            -1.328762
| 22>   H                      -8.513561            -0.847553            -1.098093
| 23> *
| 24>
| 25> #Run DFT-D3 single point of the molecule with dimer basis set
| 26> $new_job
| 27> %base "11-157_DFT_A"
| 28> ! wB97X-D3 def2-TZVP TIGHTSCF CHELPG PMODEL
| 29>
| 30> %scf
| 31> MaxIter 1000
| 32> end
| 33>
| 34> * xyz 0 1
| 35>   C                      -6.890285            -0.651512            -6.912674
| 36>   O                      -7.229241            -1.200924            -5.604162
| 37>   H                      -8.080898            -1.626156            -5.709926
| 38>   H                      -6.749683            -1.458813            -7.604666
| 39>   H                      -7.653449            0.054767             -7.336818
| 40>   H                      -5.976611            -0.051108            -6.957047
| 41>   C                    : -9.377443            -0.722194            -1.786221
| 42>   O                    : -9.024279            -1.231015            -3.033294
| 43>   H                    : -8.088597            -1.123171            -3.081556
| 44>   H                    : -9.541488            0.328002             -1.906169
| 45>   H                    : -10.284769           -1.261342            -1.328762
| 46>   H                    : -8.513561            -0.847553            -1.098093
| 47> *
| 48>
| 49> #Run DFT-D3 single point of the particle with dimer basis set
| 50> $new_job
| 51> %base "11-157_DFT_B"
| 52> ! wB97X-D3 def2-TZVP TIGHTSCF CHELPG PMODEL
| 53>
| 54> %scf
| 55> MaxIter 1000
| 56> end
| 57>
| 58> * xyz 0 1
| 59>   C                    : -6.890285            -0.651512            -6.912674
| 60>   O                    : -7.229241            -1.200924            -5.604162
| 61>   H                    : -8.080898            -1.626156            -5.709926
| 62>   H                    : -6.749683            -1.458813            -7.604666
| 63>   H                    : -7.653449            0.054767             -7.336818
| 64>   H                    : -5.976611            -0.051108            -6.957047
| 65>   C                      -9.377443            -0.722194            -1.786221
| 66>   O                      -9.024279            -1.231015            -3.033294
| 67>   H                      -8.088597            -1.123171            -3.081556
| 68>   H                      -9.541488            0.328002             -1.906169
| 69>   H                      -10.284769           -1.261342            -1.328762
| 70>   H                      -8.513561            -0.847553            -1.098093
| 71> *
| 72>
| 73>                          ****END OF INPUT****
 Total Charge           Charge          ....    0
 Multiplicity           Mult            ....    1
 Number of Electrons    NEL             ....   36
Dispersion correction           -0.001252583
FINAL SINGLE POINT ENERGY      -231.467722461089
Dispersion correction           -0.000267374
FINAL SINGLE POINT ENERGY      -115.732073584954

CARTESIAN COORDINATES (ANGSTROEM)
---------------------------------
  C     -6.890285   -0.651512   -6.912674
  O     -7.229241   -1.200924   -5.604162
  H     -8.080898   -1.626156   -5.709926
  H     -6.749683   -1.458813   -7.604666
  H     -7.653449    0.054767   -7.336818
  H     -5.976611   -0.051108   -6.957047
  C     -9.377443   -0.722194   -1.786221
  O     -9.024279   -1.231015   -3.033294
  H     -8.088597   -1.123171   -3.081556
  H     -9.541488    0.328002   -1.906169
  H    -10.284769   -1.261342   -1.328762
  H     -8.513561   -0.847553   -1.098093

 Multiplicity           Mult            ....    1
 Number of Electrons    NEL             ....   18
 Basis Dimension        Dim             ....  172

ORBITAL ENERGIES
----------------

  NO   OCC          E(Eh)            E(eV)
   0   2.0000     -19.227514      -523.2073
   1   2.0000     -10.316509      -280.7265
   2   2.0000      -1.149067       -31.2677
   3   2.0000      -0.789356       -21.4795
   4   2.0000      -0.616076       -16.7643
   5   2.0000      -0.549441       -14.9510
   6   2.0000      -0.526710       -14.3325
   7   2.0000      -0.431584       -11.7440
   8   2.0000      -0.372098       -10.1253
   9   0.0000       0.087200         2.3728
  10   0.0000       0.116290         3.1644
  11   0.0000       0.152328         4.1451
  12   0.0000       0.185390         5.0447
  13   0.0000       0.196383         5.3439

MULLIKEN ATOMIC CHARGES
-----------------------
   0 C :   -0.000216
   1 O :   -0.000860
   2 H :   -0.002697
   3 H :    0.000000
   4 H :   -0.000020
   5 H :    0.000018
   6 C :   -0.172848
   7 O :   -0.455410
   8 H :    0.315248
   9 H :    0.105752
  10 H :    0.112544
  11 H :    0.098489
Sum of atomic charges:    0.0000000

LOEWDIN ATOMIC CHARGES
----------------------
   0 C :   -0.000279
   1 O :   -0.003441
   2 H :   -0.004047
   3 H :   -0.000007
   4 H :   -0.000013
   5 H :   -0.000005
   6 C :   -0.403756
   7 O :   -0.054022
   8 H :    0.163147
   9 H :    0.089562
  10 H :    0.115746
  11 H :    0.097115

  Mayer bond orders larger than 0.1
B(  6-C ,  7-O ) :   0.9981 B(  6-C ,  9-H ) :   0.9760 B(  6-C , 10-H ) :   0.9687
B(  6-C , 11-H ) :   0.9902 B(  7-O ,  8-H ) :   0.9012

Dispersion correction           -0.000215683
FINAL SINGLE POINT ENERGY      -115.730972267947

DIPOLE MOMENT
-------------
                                X             Y             Z
Electronic contribution:      0.25027      -0.67485      -1.65943
Nuclear contribution   :      0.22721       0.93712       2.10644
                        -----------------------------------------
Total Dipole Moment    :      0.47748       0.26226       0.44701
                        -----------------------------------------
Magnitude (a.u.)       :      0.70469
Magnitude (Debye)      :      1.79118

Rotational constants in cm-1:     4.144562     0.861749     0.825852
Rotational constants in MHz : 124250.850778 25834.575510 24758.414389

                             ****ORCA TERMINATED NORMALLY****
TOTAL RUN TIME: 0 days 0 hours 1 minutes 4 seconds 675 msec
