                         Program Version 4.1.2  - RELEASE  -
|  1> #Run DFT-D3 single point of the dimer
|  2> ! wB97X-D3 def2-TZVP TIGHTSCF CHELPG PMODEL PAL8
|  3>
|  4> %base "3-127_DFT_AB"
|  5>
|  6> %scf
|  7> MaxIter 1000
|  8> end
|  9>
| 10> * xyz 0 1
| 11>   C                      8.849707             -4.694497            6.560075
| 12>   O                      9.612996             -3.634739            6.061189
| 13>   H                      10.178477            -3.856091            5.309947
| 14>   H                      9.444799             -5.519366            6.956617
| 15>   H                      8.068576             -4.283901            7.202279
| 16>   H                      8.338581             -5.109527            5.700484
| 17>   C                      9.202785             -6.005696            3.073275
| 18>   O                      8.958415             -7.193723            3.871641
| 19>   H                      8.027412             -7.454308            3.797882
| 20>   H                      9.139643             -6.243452            2.007380
| 21>   H                      8.391360             -5.319012            3.253768
| 22>   H                      10.098898            -5.548324            3.361159
| 23> *
| 24>
| 25> #Run DFT-D3 single point of the molecule with dimer basis set
| 26> $new_job
| 27> %base "3-127_DFT_A"
| 28> ! wB97X-D3 def2-TZVP TIGHTSCF CHELPG PMODEL
| 29>
| 30> %scf
| 31> MaxIter 1000
| 32> end
| 33>
| 34> * xyz 0 1
| 35>   C                      8.849707             -4.694497            6.560075
| 36>   O                      9.612996             -3.634739            6.061189
| 37>   H                      10.178477            -3.856091            5.309947
| 38>   H                      9.444799             -5.519366            6.956617
| 39>   H                      8.068576             -4.283901            7.202279
| 40>   H                      8.338581             -5.109527            5.700484
| 41>   C                    : 9.202785             -6.005696            3.073275
| 42>   O                    : 8.958415             -7.193723            3.871641
| 43>   H                    : 8.027412             -7.454308            3.797882
| 44>   H                    : 9.139643             -6.243452            2.007380
| 45>   H                    : 8.391360             -5.319012            3.253768
| 46>   H                    : 10.098898            -5.548324            3.361159
| 47> *
| 48>
| 49> #Run DFT-D3 single point of the particle with dimer basis set
| 50> $new_job
| 51> %base "3-127_DFT_B"
| 52> ! wB97X-D3 def2-TZVP TIGHTSCF CHELPG PMODEL
| 53>
| 54> %scf
| 55> MaxIter 1000
| 56> end
| 57>
| 58> * xyz 0 1
| 59>   C                    : 8.849707             -4.694497            6.560075
| 60>   O                    : 9.612996             -3.634739            6.061189
| 61>   H                    : 10.178477            -3.856091            5.309947
| 62>   H                    : 9.444799             -5.519366            6.956617
| 63>   H                    : 8.068576             -4.283901            7.202279
| 64>   H                    : 8.338581             -5.109527            5.700484
| 65>   C                      9.202785             -6.005696            3.073275
| 66>   O                      8.958415             -7.193723            3.871641
| 67>   H                      8.027412             -7.454308            3.797882
| 68>   H                      9.139643             -6.243452            2.007380
| 69>   H                      8.391360             -5.319012            3.253768
| 70>   H                      10.098898            -5.548324            3.361159
| 71> *
| 72>
| 73>                          ****END OF INPUT****
 Total Charge           Charge          ....    0
 Multiplicity           Mult            ....    1
 Number of Electrons    NEL             ....   36
Dispersion correction           -0.002146470
FINAL SINGLE POINT ENERGY      -231.466986942873
Dispersion correction           -0.000232642
FINAL SINGLE POINT ENERGY      -115.732184852963

CARTESIAN COORDINATES (ANGSTROEM)
---------------------------------
  C      8.849707   -4.694497    6.560075
  O      9.612996   -3.634739    6.061189
  H     10.178477   -3.856091    5.309947
  H      9.444799   -5.519366    6.956617
  H      8.068576   -4.283901    7.202279
  H      8.338581   -5.109527    5.700484
  C      9.202785   -6.005696    3.073275
  O      8.958415   -7.193723    3.871641
  H      8.027412   -7.454308    3.797882
  H      9.139643   -6.243452    2.007380
  H      8.391360   -5.319012    3.253768
  H     10.098898   -5.548324    3.361159

 Multiplicity           Mult            ....    1
 Number of Electrons    NEL             ....   18
 Basis Dimension        Dim             ....  172

ORBITAL ENERGIES
----------------

  NO   OCC          E(Eh)            E(eV)
   0   2.0000     -19.227045      -523.1945
   1   2.0000     -10.310266      -280.5566
   2   2.0000      -1.120471       -30.4896
   3   2.0000      -0.801598       -21.8126
   4   2.0000      -0.603748       -16.4288
   5   2.0000      -0.541140       -14.7252
   6   2.0000      -0.528755       -14.3882
   7   2.0000      -0.434945       -11.8355
   8   2.0000      -0.371665       -10.1135
   9   0.0000       0.090580         2.4648
  10   0.0000       0.122918         3.3448
  11   0.0000       0.150586         4.0977
  12   0.0000       0.176085         4.7915
  13   0.0000       0.193895         5.2762

MULLIKEN ATOMIC CHARGES
-----------------------
   0 C :    0.005408
   1 O :   -0.000331
   2 H :   -0.000970
   3 H :   -0.001669
   4 H :   -0.000247
   5 H :   -0.007027
   6 C :   -0.174289
   7 O :   -0.492956
   8 H :    0.313706
   9 H :    0.116599
  10 H :    0.111150
  11 H :    0.130626
Sum of atomic charges:   -0.0000000

LOEWDIN ATOMIC CHARGES
----------------------
   0 C :   -0.005048
   1 O :   -0.000261
   2 H :   -0.002216
   3 H :   -0.000800
   4 H :   -0.000025
   5 H :   -0.006139
   6 C :   -0.342082
   7 O :   -0.107688
   8 H :    0.170028
   9 H :    0.098610
  10 H :    0.096526
  11 H :    0.099097

  Mayer bond orders larger than 0.1
B(  6-C ,  7-O ) :   0.9714 B(  6-C ,  9-H ) :   0.9725 B(  6-C , 10-H ) :   0.9868
B(  6-C , 11-H ) :   0.9750 B(  7-O ,  8-H ) :   0.8989

Dispersion correction           -0.000238986
FINAL SINGLE POINT ENERGY      -115.733296642337

DIPOLE MOMENT
-------------
                                X             Y             Z
Electronic contribution:     -0.00438      -1.41590       0.99800
Nuclear contribution   :     -0.48966       1.77279      -1.38588
                        -----------------------------------------
Total Dipole Moment    :     -0.49403       0.35689      -0.38788
                        -----------------------------------------
Magnitude (a.u.)       :      0.72242
Magnitude (Debye)      :      1.83625

Rotational constants in cm-1:     4.370080     0.803062     0.773428
Rotational constants in MHz : 131011.693061 24075.195559 23186.789182

                             ****ORCA TERMINATED NORMALLY****
TOTAL RUN TIME: 0 days 0 hours 6 minutes 24 seconds 980 msec
