                         Program Version 4.1.2  - RELEASE  -
|  1> #Run DFT-D3 single point of the dimer
|  2> ! wB97X-D3 def2-TZVP TIGHTSCF CHELPG PMODEL PAL8
|  3>
|  4> %base "22-173_DFT_AB"
|  5>
|  6> %scf
|  7> MaxIter 1000
|  8> end
|  9>
| 10> * xyz 0 1
| 11>   C                      -2.949935            9.302881             7.250377
| 12>   O                      -3.854951            8.679741             8.209806
| 13>   H                      -3.999120            7.738122             7.973193
| 14>   H                      -1.951529            9.062261             7.474002
| 15>   H                      -3.203255            8.897659             6.218874
| 16>   H                      -2.932842            10.382185            7.384572
| 17>   C                      -4.439583            5.284049             6.460720
| 18>   O                      -3.532584            5.940513             7.279064
| 19>   H                      -2.829601            5.355491             7.431559
| 20>   H                      -5.279890            4.732551             6.970226
| 21>   H                      -4.912317            5.976185             5.736336
| 22>   H                      -3.816924            4.488641             5.983282
| 23> *
| 24>
| 25> #Run DFT-D3 single point of the molecule with dimer basis set
| 26> $new_job
| 27> %base "22-173_DFT_A"
| 28> ! wB97X-D3 def2-TZVP TIGHTSCF CHELPG PMODEL
| 29>
| 30> %scf
| 31> MaxIter 1000
| 32> end
| 33>
| 34> * xyz 0 1
| 35>   C                      -2.949935            9.302881             7.250377
| 36>   O                      -3.854951            8.679741             8.209806
| 37>   H                      -3.999120            7.738122             7.973193
| 38>   H                      -1.951529            9.062261             7.474002
| 39>   H                      -3.203255            8.897659             6.218874
| 40>   H                      -2.932842            10.382185            7.384572
| 41>   C                    : -4.439583            5.284049             6.460720
| 42>   O                    : -3.532584            5.940513             7.279064
| 43>   H                    : -2.829601            5.355491             7.431559
| 44>   H                    : -5.279890            4.732551             6.970226
| 45>   H                    : -4.912317            5.976185             5.736336
| 46>   H                    : -3.816924            4.488641             5.983282
| 47> *
| 48>
| 49> #Run DFT-D3 single point of the particle with dimer basis set
| 50> $new_job
| 51> %base "22-173_DFT_B"
| 52> ! wB97X-D3 def2-TZVP TIGHTSCF CHELPG PMODEL
| 53>
| 54> %scf
| 55> MaxIter 1000
| 56> end
| 57>
| 58> * xyz 0 1
| 59>   C                    : -2.949935            9.302881             7.250377
| 60>   O                    : -3.854951            8.679741             8.209806
| 61>   H                    : -3.999120            7.738122             7.973193
| 62>   H                    : -1.951529            9.062261             7.474002
| 63>   H                    : -3.203255            8.897659             6.218874
| 64>   H                    : -2.932842            10.382185            7.384572
| 65>   C                      -4.439583            5.284049             6.460720
| 66>   O                      -3.532584            5.940513             7.279064
| 67>   H                      -2.829601            5.355491             7.431559
| 68>   H                      -5.279890            4.732551             6.970226
| 69>   H                      -4.912317            5.976185             5.736336
| 70>   H                      -3.816924            4.488641             5.983282
| 71> *
| 72>
| 73>                          ****END OF INPUT****
 Total Charge           Charge          ....    0
 Multiplicity           Mult            ....    1
 Number of Electrons    NEL             ....   36
Dispersion correction           -0.001849194
FINAL SINGLE POINT ENERGY      -231.466124916786
Dispersion correction           -0.000255920
FINAL SINGLE POINT ENERGY      -115.729130130222

CARTESIAN COORDINATES (ANGSTROEM)
---------------------------------
  C     -2.949935    9.302881    7.250377
  O     -3.854951    8.679741    8.209806
  H     -3.999120    7.738122    7.973193
  H     -1.951529    9.062261    7.474002
  H     -3.203255    8.897659    6.218874
  H     -2.932842   10.382185    7.384572
  C     -4.439583    5.284049    6.460720
  O     -3.532584    5.940513    7.279064
  H     -2.829601    5.355491    7.431559
  H     -5.279890    4.732551    6.970226
  H     -4.912317    5.976185    5.736336
  H     -3.816924    4.488641    5.983282

 Multiplicity           Mult            ....    1
 Number of Electrons    NEL             ....   18
 Basis Dimension        Dim             ....  172

ORBITAL ENERGIES
----------------

  NO   OCC          E(Eh)            E(eV)
   0   2.0000     -19.229089      -523.2501
   1   2.0000     -10.320058      -280.8231
   2   2.0000      -1.154939       -31.4275
   3   2.0000      -0.791793       -21.5458
   4   2.0000      -0.621840       -16.9211
   5   2.0000      -0.543293       -14.7838
   6   2.0000      -0.534395       -14.5416
   7   2.0000      -0.430801       -11.7227
   8   2.0000      -0.371690       -10.1142
   9   0.0000       0.098608         2.6833
  10   0.0000       0.123695         3.3659
  11   0.0000       0.152633         4.1534
  12   0.0000       0.186812         5.0834
  13   0.0000       0.196823         5.3558

MULLIKEN ATOMIC CHARGES
-----------------------
   0 C :    0.003885
   1 O :    0.001670
   2 H :   -0.011391
   3 H :   -0.002109
   4 H :   -0.003111
   5 H :   -0.000333
   6 C :   -0.155936
   7 O :   -0.447028
   8 H :    0.309673
   9 H :    0.094618
  10 H :    0.118637
  11 H :    0.091425
Sum of atomic charges:   -0.0000000

LOEWDIN ATOMIC CHARGES
----------------------
   0 C :   -0.006405
   1 O :   -0.004458
   2 H :   -0.036786
   3 H :   -0.000606
   4 H :   -0.001431
   5 H :   -0.000095
   6 C :   -0.405746
   7 O :   -0.002440
   8 H :    0.151514
   9 H :    0.097143
  10 H :    0.107099
  11 H :    0.102211

  Mayer bond orders larger than 0.1
B(  6-C ,  7-O ) :   1.0073 B(  6-C ,  9-H ) :   0.9631 B(  6-C , 10-H ) :   0.9754
B(  6-C , 11-H ) :   0.9917 B(  7-O ,  8-H ) :   0.9058

Dispersion correction           -0.000234961
FINAL SINGLE POINT ENERGY      -115.729463438218

DIPOLE MOMENT
-------------
                                X             Y             Z
Electronic contribution:      1.07448       1.07066       1.08296
Nuclear contribution   :     -0.93904      -1.70333      -1.29904
                        -----------------------------------------
Total Dipole Moment    :      0.13544      -0.63267      -0.21608
                        -----------------------------------------
Magnitude (a.u.)       :      0.68213
Magnitude (Debye)      :      1.73385

Rotational constants in cm-1:     4.225776     0.861079     0.822896
Rotational constants in MHz : 126685.579684 25814.505573 24669.794360

                             ****ORCA TERMINATED NORMALLY****
TOTAL RUN TIME: 0 days 0 hours 1 minutes 8 seconds 220 msec
