                         Program Version 4.1.2  - RELEASE  -
|  1> #Run DFT-D3 single point of the dimer
|  2> ! wB97X-D3 def2-TZVP TIGHTSCF CHELPG PMODEL PAL8
|  3>
|  4> %base "4-86_DFT_AB"
|  5>
|  6> %scf
|  7> MaxIter 1000
|  8> end
|  9>
| 10> * xyz 0 1
| 11>   C                      8.138163             2.013779             8.440012
| 12>   O                      8.449880             2.296050             7.073773
| 13>   H                      8.958610             1.573154             6.754095
| 14>   H                      7.680784             2.922407             8.860548
| 15>   H                      7.458505             1.109173             8.484702
| 16>   H                      9.035666             1.771950             8.988343
| 17>   C                      7.470692             6.028601             6.508345
| 18>   O                      7.339370             6.917307             7.588808
| 19>   H                      7.231223             7.717244             7.138052
| 20>   H                      7.922001             5.088984             6.804653
| 21>   H                      6.594084             5.881988             5.978503
| 22>   H                      8.218591             6.480001             5.812974
| 23> *
| 24>
| 25> #Run DFT-D3 single point of the molecule with dimer basis set
| 26> $new_job
| 27> %base "4-86_DFT_A"
| 28> ! wB97X-D3 def2-TZVP TIGHTSCF CHELPG PMODEL
| 29>
| 30> %scf
| 31> MaxIter 1000
| 32> end
| 33>
| 34> * xyz 0 1
| 35>   C                      8.138163             2.013779             8.440012
| 36>   O                      8.449880             2.296050             7.073773
| 37>   H                      8.958610             1.573154             6.754095
| 38>   H                      7.680784             2.922407             8.860548
| 39>   H                      7.458505             1.109173             8.484702
| 40>   H                      9.035666             1.771950             8.988343
| 41>   C                    : 7.470692             6.028601             6.508345
| 42>   O                    : 7.339370             6.917307             7.588808
| 43>   H                    : 7.231223             7.717244             7.138052
| 44>   H                    : 7.922001             5.088984             6.804653
| 45>   H                    : 6.594084             5.881988             5.978503
| 46>   H                    : 8.218591             6.480001             5.812974
| 47> *
| 48>
| 49> #Run DFT-D3 single point of the particle with dimer basis set
| 50> $new_job
| 51> %base "4-86_DFT_B"
| 52> ! wB97X-D3 def2-TZVP TIGHTSCF CHELPG PMODEL
| 53>
| 54> %scf
| 55> MaxIter 1000
| 56> end
| 57>
| 58> * xyz 0 1
| 59>   C                    : 8.138163             2.013779             8.440012
| 60>   O                    : 8.449880             2.296050             7.073773
| 61>   H                    : 8.958610             1.573154             6.754095
| 62>   H                    : 7.680784             2.922407             8.860548
| 63>   H                    : 7.458505             1.109173             8.484702
| 64>   H                    : 9.035666             1.771950             8.988343
| 65>   C                      7.470692             6.028601             6.508345
| 66>   O                      7.339370             6.917307             7.588808
| 67>   H                      7.231223             7.717244             7.138052
| 68>   H                      7.922001             5.088984             6.804653
| 69>   H                      6.594084             5.881988             5.978503
| 70>   H                      8.218591             6.480001             5.812974
| 71> *
| 72>
| 73>                          ****END OF INPUT****
 Total Charge           Charge          ....    0
 Multiplicity           Mult            ....    1
 Number of Electrons    NEL             ....   36
Dispersion correction           -0.001202465
FINAL SINGLE POINT ENERGY      -231.466831497101
Dispersion correction           -0.000231342
FINAL SINGLE POINT ENERGY      -115.735402073906

CARTESIAN COORDINATES (ANGSTROEM)
---------------------------------
  C      8.138163    2.013779    8.440012
  O      8.449880    2.296050    7.073773
  H      8.958610    1.573154    6.754095
  H      7.680784    2.922407    8.860548
  H      7.458505    1.109173    8.484702
  H      9.035666    1.771950    8.988343
  C      7.470692    6.028601    6.508345
  O      7.339370    6.917307    7.588808
  H      7.231223    7.717244    7.138052
  H      7.922001    5.088984    6.804653
  H      6.594084    5.881988    5.978503
  H      8.218591    6.480001    5.812974

 Multiplicity           Mult            ....    1
 Number of Electrons    NEL             ....   18
 Basis Dimension        Dim             ....  172

ORBITAL ENERGIES
----------------

  NO   OCC          E(Eh)            E(eV)
   0   2.0000     -19.227376      -523.2035
   1   2.0000     -10.307615      -280.4845
   2   2.0000      -1.151455       -31.3327
   3   2.0000      -0.798696       -21.7336
   4   2.0000      -0.616168       -16.7668
   5   2.0000      -0.552695       -15.0396
   6   2.0000      -0.530127       -14.4255
   7   2.0000      -0.439120       -11.9491
   8   2.0000      -0.375374       -10.2144
   9   0.0000       0.086390         2.3508
  10   0.0000       0.117946         3.2095
  11   0.0000       0.155915         4.2427
  12   0.0000       0.172089         4.6828
  13   0.0000       0.186257         5.0683

MULLIKEN ATOMIC CHARGES
-----------------------
   0 C :   -0.000778
   1 O :    0.000152
   2 H :   -0.000033
   3 H :    0.000849
   4 H :    0.000032
   5 H :   -0.000012
   6 C :   -0.179162
   7 O :   -0.453799
   8 H :    0.308227
   9 H :    0.117947
  10 H :    0.109426
  11 H :    0.097150
Sum of atomic charges:    0.0000000

LOEWDIN ATOMIC CHARGES
----------------------
   0 C :   -0.001297
   1 O :   -0.001765
   2 H :   -0.000103
   3 H :   -0.000468
   4 H :   -0.000013
   5 H :   -0.000016
   6 C :   -0.383790
   7 O :   -0.052309
   8 H :    0.150279
   9 H :    0.106931
  10 H :    0.081448
  11 H :    0.101102

  Mayer bond orders larger than 0.1
B(  6-C ,  7-O ) :   1.0048 B(  6-C ,  9-H ) :   0.9740 B(  6-C , 10-H ) :   0.9705
B(  6-C , 11-H ) :   0.9938 B(  7-O ,  8-H ) :   0.9116

Dispersion correction           -0.000201177
FINAL SINGLE POINT ENERGY      -115.729405251636

DIPOLE MOMENT
-------------
                                X             Y             Z
Electronic contribution:     -0.33048       0.94757       1.55963
Nuclear contribution   :      0.31323      -0.79489      -2.26178
                        -----------------------------------------
Total Dipole Moment    :     -0.01724       0.15268      -0.70216
                        -----------------------------------------
Magnitude (a.u.)       :      0.71877
Magnitude (Debye)      :      1.82698

Rotational constants in cm-1:     4.396634     0.854316     0.823141
Rotational constants in MHz : 131807.771273 25611.741875 24677.136872

                             ****ORCA TERMINATED NORMALLY****
TOTAL RUN TIME: 0 days 0 hours 1 minutes 32 seconds 119 msec
