                         Program Version 4.1.2  - RELEASE  -
|  1> #Run DFT-D3 single point of the dimer
|  2> ! wB97X-D3 def2-TZVP TIGHTSCF CHELPG PMODEL PAL8
|  3>
|  4> %base "13-90_DFT_AB"
|  5>
|  6> %scf
|  7> MaxIter 1000
|  8> end
|  9>
| 10> * xyz 0 1
| 11>   C                      -2.473489            2.754382             -3.587635
| 12>   O                      -2.443331            4.137999             -3.468418
| 13>   H                      -2.406738            4.647574             -4.288539
| 14>   H                      -1.822514            2.438176             -4.417710
| 15>   H                      -2.095098            2.370439             -2.644488
| 16>   H                      -3.458589            2.327411             -3.868728
| 17>   C                      -5.486069            3.512021             -4.913859
| 18>   O                      -6.167169            2.307264             -4.603572
| 19>   H                      -6.701712            2.041697             -5.373229
| 20>   H                      -5.168104            4.102406             -4.051643
| 21>   H                      -4.604469            3.379648             -5.458457
| 22>   H                      -6.112285            4.173370             -5.467415
| 23> *
| 24>
| 25> #Run DFT-D3 single point of the molecule with dimer basis set
| 26> $new_job
| 27> %base "13-90_DFT_A"
| 28> ! wB97X-D3 def2-TZVP TIGHTSCF CHELPG PMODEL
| 29>
| 30> %scf
| 31> MaxIter 1000
| 32> end
| 33>
| 34> * xyz 0 1
| 35>   C                      -2.473489            2.754382             -3.587635
| 36>   O                      -2.443331            4.137999             -3.468418
| 37>   H                      -2.406738            4.647574             -4.288539
| 38>   H                      -1.822514            2.438176             -4.417710
| 39>   H                      -2.095098            2.370439             -2.644488
| 40>   H                      -3.458589            2.327411             -3.868728
| 41>   C                    : -5.486069            3.512021             -4.913859
| 42>   O                    : -6.167169            2.307264             -4.603572
| 43>   H                    : -6.701712            2.041697             -5.373229
| 44>   H                    : -5.168104            4.102406             -4.051643
| 45>   H                    : -4.604469            3.379648             -5.458457
| 46>   H                    : -6.112285            4.173370             -5.467415
| 47> *
| 48>
| 49> #Run DFT-D3 single point of the particle with dimer basis set
| 50> $new_job
| 51> %base "13-90_DFT_B"
| 52> ! wB97X-D3 def2-TZVP TIGHTSCF CHELPG PMODEL
| 53>
| 54> %scf
| 55> MaxIter 1000
| 56> end
| 57>
| 58> * xyz 0 1
| 59>   C                    : -2.473489            2.754382             -3.587635
| 60>   O                    : -2.443331            4.137999             -3.468418
| 61>   H                    : -2.406738            4.647574             -4.288539
| 62>   H                    : -1.822514            2.438176             -4.417710
| 63>   H                    : -2.095098            2.370439             -2.644488
| 64>   H                    : -3.458589            2.327411             -3.868728
| 65>   C                      -5.486069            3.512021             -4.913859
| 66>   O                      -6.167169            2.307264             -4.603572
| 67>   H                      -6.701712            2.041697             -5.373229
| 68>   H                      -5.168104            4.102406             -4.051643
| 69>   H                      -4.604469            3.379648             -5.458457
| 70>   H                      -6.112285            4.173370             -5.467415
| 71> *
| 72>
| 73>                          ****END OF INPUT****
 Total Charge           Charge          ....    0
 Multiplicity           Mult            ....    1
 Number of Electrons    NEL             ....   36
Dispersion correction           -0.002171942
FINAL SINGLE POINT ENERGY      -231.466829768892
Dispersion correction           -0.000251151
FINAL SINGLE POINT ENERGY      -115.733839566335

CARTESIAN COORDINATES (ANGSTROEM)
---------------------------------
  C     -2.473489    2.754382   -3.587635
  O     -2.443331    4.137999   -3.468418
  H     -2.406738    4.647574   -4.288539
  H     -1.822514    2.438176   -4.417710
  H     -2.095098    2.370439   -2.644488
  H     -3.458589    2.327411   -3.868728
  C     -5.486069    3.512021   -4.913859
  O     -6.167169    2.307264   -4.603572
  H     -6.701712    2.041697   -5.373229
  H     -5.168104    4.102406   -4.051643
  H     -4.604469    3.379648   -5.458457
  H     -6.112285    4.173370   -5.467415

 Multiplicity           Mult            ....    1
 Number of Electrons    NEL             ....   18
 Basis Dimension        Dim             ....  172

ORBITAL ENERGIES
----------------

  NO   OCC          E(Eh)            E(eV)
   0   2.0000     -19.231922      -523.3272
   1   2.0000     -10.304728      -280.4059
   2   2.0000      -1.131509       -30.7899
   3   2.0000      -0.803270       -21.8581
   4   2.0000      -0.611235       -16.6325
   5   2.0000      -0.545830       -14.8528
   6   2.0000      -0.529314       -14.4034
   7   2.0000      -0.430283       -11.7086
   8   2.0000      -0.375583       -10.2201
   9   0.0000       0.090206         2.4546
  10   0.0000       0.117225         3.1899
  11   0.0000       0.151962         4.1351
  12   0.0000       0.180217         4.9039
  13   0.0000       0.188495         5.1292

MULLIKEN ATOMIC CHARGES
-----------------------
   0 C :   -0.005602
   1 O :   -0.000562
   2 H :   -0.000064
   3 H :    0.000028
   4 H :    0.000124
   5 H :    0.006234
   6 C :   -0.176427
   7 O :   -0.480112
   8 H :    0.318174
   9 H :    0.114833
  10 H :    0.109305
  11 H :    0.114070
Sum of atomic charges:   -0.0000000

LOEWDIN ATOMIC CHARGES
----------------------
   0 C :   -0.010736
   1 O :   -0.002186
   2 H :   -0.001548
   3 H :   -0.000283
   4 H :   -0.000071
   5 H :   -0.007799
   6 C :   -0.369167
   7 O :   -0.081569
   8 H :    0.178699
   9 H :    0.112603
  10 H :    0.089914
  11 H :    0.092141

  Mayer bond orders larger than 0.1
B(  6-C ,  7-O ) :   0.9933 B(  6-C ,  9-H ) :   0.9756 B(  6-C , 10-H ) :   0.9780
B(  6-C , 11-H ) :   0.9789 B(  7-O ,  8-H ) :   0.8943

Dispersion correction           -0.000244430
FINAL SINGLE POINT ENERGY      -115.732028320583

DIPOLE MOMENT
-------------
                                X             Y             Z
Electronic contribution:     -0.81264      -1.62326       0.52765
Nuclear contribution   :      0.74473       1.96086      -1.14902
                        -----------------------------------------
Total Dipole Moment    :     -0.06791       0.33760      -0.62137
                        -----------------------------------------
Magnitude (a.u.)       :      0.71041
Magnitude (Debye)      :      1.80573

Rotational constants in cm-1:     4.602268     0.820630     0.790737
Rotational constants in MHz : 137972.532921 24601.876661 23705.686702

                             ****ORCA TERMINATED NORMALLY****
TOTAL RUN TIME: 0 days 0 hours 1 minutes 7 seconds 888 msec
