                         Program Version 4.1.2  - RELEASE  -
|  1> #Run DFT-D3 single point of the dimer
|  2> ! wB97X-D3 def2-TZVP TIGHTSCF CHELPG PMODEL PAL8
|  3>
|  4> %base "18-151_DFT_AB"
|  5>
|  6> %scf
|  7> MaxIter 1000
|  8> end
|  9>
| 10> * xyz 0 1
| 11>   C                      8.698315             8.527645             4.193223
| 12>   O                      8.332539             9.825582             4.550189
| 13>   H                      8.392684             9.926379             5.517140
| 14>   H                      9.797453             8.475978             4.047578
| 15>   H                      8.633452             7.804023             5.035636
| 16>   H                      8.155583             8.214171             3.323986
| 17>   C                      10.902052            8.241988             6.870853
| 18>   O                      9.716200             8.730091             7.378162
| 19>   H                      9.123382             8.071701             7.731173
| 20>   H                      10.839917            7.174667             6.614693
| 21>   H                      11.198627            8.886888             6.007159
| 22>   H                      11.664649            8.276509             7.609887
| 23> *
| 24>
| 25> #Run DFT-D3 single point of the molecule with dimer basis set
| 26> $new_job
| 27> %base "18-151_DFT_A"
| 28> ! wB97X-D3 def2-TZVP TIGHTSCF CHELPG PMODEL
| 29>
| 30> %scf
| 31> MaxIter 1000
| 32> end
| 33>
| 34> * xyz 0 1
| 35>   C                      8.698315             8.527645             4.193223
| 36>   O                      8.332539             9.825582             4.550189
| 37>   H                      8.392684             9.926379             5.517140
| 38>   H                      9.797453             8.475978             4.047578
| 39>   H                      8.633452             7.804023             5.035636
| 40>   H                      8.155583             8.214171             3.323986
| 41>   C                    : 10.902052            8.241988             6.870853
| 42>   O                    : 9.716200             8.730091             7.378162
| 43>   H                    : 9.123382             8.071701             7.731173
| 44>   H                    : 10.839917            7.174667             6.614693
| 45>   H                    : 11.198627            8.886888             6.007159
| 46>   H                    : 11.664649            8.276509             7.609887
| 47> *
| 48>
| 49> #Run DFT-D3 single point of the particle with dimer basis set
| 50> $new_job
| 51> %base "18-151_DFT_B"
| 52> ! wB97X-D3 def2-TZVP TIGHTSCF CHELPG PMODEL
| 53>
| 54> %scf
| 55> MaxIter 1000
| 56> end
| 57>
| 58> * xyz 0 1
| 59>   C                    : 8.698315             8.527645             4.193223
| 60>   O                    : 8.332539             9.825582             4.550189
| 61>   H                    : 8.392684             9.926379             5.517140
| 62>   H                    : 9.797453             8.475978             4.047578
| 63>   H                    : 8.633452             7.804023             5.035636
| 64>   H                    : 8.155583             8.214171             3.323986
| 65>   C                      10.902052            8.241988             6.870853
| 66>   O                      9.716200             8.730091             7.378162
| 67>   H                      9.123382             8.071701             7.731173
| 68>   H                      10.839917            7.174667             6.614693
| 69>   H                      11.198627            8.886888             6.007159
| 70>   H                      11.664649            8.276509             7.609887
| 71> *
| 72>
| 73>                          ****END OF INPUT****
 Total Charge           Charge          ....    0
 Multiplicity           Mult            ....    1
 Number of Electrons    NEL             ....   36
Dispersion correction           -0.002515053
FINAL SINGLE POINT ENERGY      -231.471149554603
Dispersion correction           -0.000238693
FINAL SINGLE POINT ENERGY      -115.732147871085

CARTESIAN COORDINATES (ANGSTROEM)
---------------------------------
  C      8.698315    8.527645    4.193223
  O      8.332539    9.825582    4.550189
  H      8.392684    9.926379    5.517140
  H      9.797453    8.475978    4.047578
  H      8.633452    7.804023    5.035636
  H      8.155583    8.214171    3.323986
  C     10.902052    8.241988    6.870853
  O      9.716200    8.730091    7.378162
  H      9.123382    8.071701    7.731173
  H     10.839917    7.174667    6.614693
  H     11.198627    8.886888    6.007159
  H     11.664649    8.276509    7.609887

 Multiplicity           Mult            ....    1
 Number of Electrons    NEL             ....   18
 Basis Dimension        Dim             ....  172

ORBITAL ENERGIES
----------------

  NO   OCC          E(Eh)            E(eV)
   0   2.0000     -19.226362      -523.1759
   1   2.0000     -10.309763      -280.5429
   2   2.0000      -1.143896       -31.1270
   3   2.0000      -0.798289       -21.7225
   4   2.0000      -0.622234       -16.9318
   5   2.0000      -0.542093       -14.7511
   6   2.0000      -0.533038       -14.5047
   7   2.0000      -0.426037       -11.5930
   8   2.0000      -0.369058       -10.0426
   9   0.0000       0.092853         2.5267
  10   0.0000       0.129344         3.5196
  11   0.0000       0.155349         4.2273
  12   0.0000       0.174035         4.7357
  13   0.0000       0.206959         5.6316

MULLIKEN ATOMIC CHARGES
-----------------------
   0 C :    0.016576
   1 O :   -0.001211
   2 H :   -0.005729
   3 H :   -0.003753
   4 H :   -0.014435
   5 H :   -0.000022
   6 C :   -0.154107
   7 O :   -0.480223
   8 H :    0.319190
   9 H :    0.100158
  10 H :    0.116552
  11 H :    0.107004
Sum of atomic charges:    0.0000000

LOEWDIN ATOMIC CHARGES
----------------------
   0 C :   -0.009414
   1 O :   -0.001134
   2 H :   -0.011034
   3 H :   -0.003682
   4 H :   -0.006429
   5 H :   -0.000049
   6 C :   -0.401377
   7 O :   -0.034251
   8 H :    0.165795
   9 H :    0.097681
  10 H :    0.115667
  11 H :    0.088228

  Mayer bond orders larger than 0.1
B(  6-C ,  7-O ) :   0.9878 B(  6-C ,  9-H ) :   0.9834 B(  6-C , 10-H ) :   0.9770
B(  6-C , 11-H ) :   0.9754 B(  7-O ,  8-H ) :   0.8931

Dispersion correction           -0.000238477
FINAL SINGLE POINT ENERGY      -115.733235265480

DIPOLE MOMENT
-------------
                                X             Y             Z
Electronic contribution:     -1.49544       0.72600       0.61420
Nuclear contribution   :      1.57257      -1.36850      -0.55380
                        -----------------------------------------
Total Dipole Moment    :      0.07713      -0.64250       0.06040
                        -----------------------------------------
Magnitude (a.u.)       :      0.64993
Magnitude (Debye)      :      1.65199

Rotational constants in cm-1:     4.369403     0.865494     0.825777
Rotational constants in MHz : 130991.397141 25946.871308 24756.164595

                             ****ORCA TERMINATED NORMALLY****
TOTAL RUN TIME: 0 days 0 hours 1 minutes 0 seconds 435 msec
