                         Program Version 4.1.2  - RELEASE  -
|  1> #Run DFT-D3 single point of the dimer
|  2> ! wB97X-D3 def2-TZVP TIGHTSCF CHELPG PMODEL PAL8
|  3>
|  4> %base "20-201_DFT_AB"
|  5>
|  6> %scf
|  7> MaxIter 1000
|  8> end
|  9>
| 10> * xyz 0 1
| 11>   C                      5.827610             -0.575672            1.401418
| 12>   O                      5.249288             0.667074             1.196512
| 13>   H                      5.412422             1.050128             0.323895
| 14>   H                      6.908473             -0.683556            1.197600
| 15>   H                      5.887313             -0.921262            2.416581
| 16>   H                      5.287027             -1.259163            0.748697
| 17>   C                      5.414360             2.312318             -2.568402
| 18>   O                      4.625519             1.914450             -1.504518
| 19>   H                      3.851987             1.466490             -1.876465
| 20>   H                      4.913684             2.890442             -3.305051
| 21>   H                      6.162484             2.892581             -2.213522
| 22>   H                      5.852648             1.497806             -3.120697
| 23> *
| 24>
| 25> #Run DFT-D3 single point of the molecule with dimer basis set
| 26> $new_job
| 27> %base "20-201_DFT_A"
| 28> ! wB97X-D3 def2-TZVP TIGHTSCF CHELPG PMODEL
| 29>
| 30> %scf
| 31> MaxIter 1000
| 32> end
| 33>
| 34> * xyz 0 1
| 35>   C                      5.827610             -0.575672            1.401418
| 36>   O                      5.249288             0.667074             1.196512
| 37>   H                      5.412422             1.050128             0.323895
| 38>   H                      6.908473             -0.683556            1.197600
| 39>   H                      5.887313             -0.921262            2.416581
| 40>   H                      5.287027             -1.259163            0.748697
| 41>   C                    : 5.414360             2.312318             -2.568402
| 42>   O                    : 4.625519             1.914450             -1.504518
| 43>   H                    : 3.851987             1.466490             -1.876465
| 44>   H                    : 4.913684             2.890442             -3.305051
| 45>   H                    : 6.162484             2.892581             -2.213522
| 46>   H                    : 5.852648             1.497806             -3.120697
| 47> *
| 48>
| 49> #Run DFT-D3 single point of the particle with dimer basis set
| 50> $new_job
| 51> %base "20-201_DFT_B"
| 52> ! wB97X-D3 def2-TZVP TIGHTSCF CHELPG PMODEL
| 53>
| 54> %scf
| 55> MaxIter 1000
| 56> end
| 57>
| 58> * xyz 0 1
| 59>   C                    : 5.827610             -0.575672            1.401418
| 60>   O                    : 5.249288             0.667074             1.196512
| 61>   H                    : 5.412422             1.050128             0.323895
| 62>   H                    : 6.908473             -0.683556            1.197600
| 63>   H                    : 5.887313             -0.921262            2.416581
| 64>   H                    : 5.287027             -1.259163            0.748697
| 65>   C                      5.414360             2.312318             -2.568402
| 66>   O                      4.625519             1.914450             -1.504518
| 67>   H                      3.851987             1.466490             -1.876465
| 68>   H                      4.913684             2.890442             -3.305051
| 69>   H                      6.162484             2.892581             -2.213522
| 70>   H                      5.852648             1.497806             -3.120697
| 71> *
| 72>
| 73>                          ****END OF INPUT****
 Total Charge           Charge          ....    0
 Multiplicity           Mult            ....    1
 Number of Electrons    NEL             ....   36
Dispersion correction           -0.001418546
FINAL SINGLE POINT ENERGY      -231.465319530900
Dispersion correction           -0.000251758
FINAL SINGLE POINT ENERGY      -115.727764637752

CARTESIAN COORDINATES (ANGSTROEM)
---------------------------------
  C      5.827610   -0.575672    1.401418
  O      5.249288    0.667074    1.196512
  H      5.412422    1.050128    0.323895
  H      6.908473   -0.683556    1.197600
  H      5.887313   -0.921262    2.416581
  H      5.287027   -1.259163    0.748697
  C      5.414360    2.312318   -2.568402
  O      4.625519    1.914450   -1.504518
  H      3.851987    1.466490   -1.876465
  H      4.913684    2.890442   -3.305051
  H      6.162484    2.892581   -2.213522
  H      5.852648    1.497806   -3.120697

 Multiplicity           Mult            ....    1
 Number of Electrons    NEL             ....   18
 Basis Dimension        Dim             ....  172

ORBITAL ENERGIES
----------------

  NO   OCC          E(Eh)            E(eV)
   0   2.0000     -19.232143      -523.3332
   1   2.0000     -10.294897      -280.1384
   2   2.0000      -1.145412       -31.1683
   3   2.0000      -0.805822       -21.9275
   4   2.0000      -0.621261       -16.9054
   5   2.0000      -0.544531       -14.8174
   6   2.0000      -0.537074       -14.6145
   7   2.0000      -0.440177       -11.9778
   8   2.0000      -0.372885       -10.1467
   9   0.0000       0.096394         2.6230
  10   0.0000       0.121814         3.3147
  11   0.0000       0.157856         4.2955
  12   0.0000       0.191323         5.2062
  13   0.0000       0.204825         5.5736

MULLIKEN ATOMIC CHARGES
-----------------------
   0 C :   -0.000443
   1 O :    0.000442
   2 H :   -0.008692
   3 H :   -0.000059
   4 H :   -0.000173
   5 H :   -0.000444
   6 C :   -0.148793
   7 O :   -0.466288
   8 H :    0.313880
   9 H :    0.096134
  10 H :    0.123505
  11 H :    0.090931
Sum of atomic charges:   -0.0000000

LOEWDIN ATOMIC CHARGES
----------------------
   0 C :   -0.001058
   1 O :   -0.003844
   2 H :   -0.027227
   3 H :   -0.000012
   4 H :   -0.000034
   5 H :   -0.000206
   6 C :   -0.394033
   7 O :   -0.025523
   8 H :    0.177632
   9 H :    0.090582
  10 H :    0.091807
  11 H :    0.091916

  Mayer bond orders larger than 0.1
B(  6-C ,  7-O ) :   0.9954 B(  6-C ,  9-H ) :   0.9736 B(  6-C , 10-H ) :   0.9805
B(  6-C , 11-H ) :   0.9788 B(  7-O ,  8-H ) :   0.8971

Dispersion correction           -0.000217426
FINAL SINGLE POINT ENERGY      -115.730961991518

DIPOLE MOMENT
-------------
                                X             Y             Z
Electronic contribution:     -0.93344      -0.43213       1.53373
Nuclear contribution   :      0.75373       0.33114      -2.18406
                        -----------------------------------------
Total Dipole Moment    :     -0.17971      -0.10099      -0.65033
                        -----------------------------------------
Magnitude (a.u.)       :      0.68222
Magnitude (Debye)      :      1.73407

Rotational constants in cm-1:     4.638641     0.866282     0.834405
Rotational constants in MHz : 139062.966432 25970.475523 25014.840615

                             ****ORCA TERMINATED NORMALLY****
TOTAL RUN TIME: 0 days 0 hours 0 minutes 58 seconds 384 msec
