                         Program Version 4.1.2  - RELEASE  -
|  1> #Run DFT-D3 single point of the dimer
|  2> ! wB97X-D3 def2-TZVP TIGHTSCF CHELPG PMODEL PAL8
|  3>
|  4> %base "22-117_DFT_AB"
|  5>
|  6> %scf
|  7> MaxIter 1000
|  8> end
|  9>
| 10> * xyz 0 1
| 11>   C                      9.127973             -4.206590            -5.553106
| 12>   O                      9.198352             -3.754074            -6.873676
| 13>   H                      8.767707             -2.895544            -7.051401
| 14>   H                      9.159039             -3.377369            -4.790389
| 15>   H                      8.346103             -4.875158            -5.367010
| 16>   H                      10.099926            -4.613253            -5.262392
| 17>   C                      7.176351             -5.555444            -9.642628
| 18>   O                      6.863697             -4.634718            -10.690662
| 19>   H                      7.699356             -4.527552            -11.107944
| 20>   H                      8.036445             -5.232552            -9.075712
| 21>   H                      6.296603             -5.663072            -8.983723
| 22>   H                      7.540139             -6.544604            -9.957198
| 23> *
| 24>
| 25> #Run DFT-D3 single point of the molecule with dimer basis set
| 26> $new_job
| 27> %base "22-117_DFT_A"
| 28> ! wB97X-D3 def2-TZVP TIGHTSCF CHELPG PMODEL
| 29>
| 30> %scf
| 31> MaxIter 1000
| 32> end
| 33>
| 34> * xyz 0 1
| 35>   C                      9.127973             -4.206590            -5.553106
| 36>   O                      9.198352             -3.754074            -6.873676
| 37>   H                      8.767707             -2.895544            -7.051401
| 38>   H                      9.159039             -3.377369            -4.790389
| 39>   H                      8.346103             -4.875158            -5.367010
| 40>   H                      10.099926            -4.613253            -5.262392
| 41>   C                    : 7.176351             -5.555444            -9.642628
| 42>   O                    : 6.863697             -4.634718            -10.690662
| 43>   H                    : 7.699356             -4.527552            -11.107944
| 44>   H                    : 8.036445             -5.232552            -9.075712
| 45>   H                    : 6.296603             -5.663072            -8.983723
| 46>   H                    : 7.540139             -6.544604            -9.957198
| 47> *
| 48>
| 49> #Run DFT-D3 single point of the particle with dimer basis set
| 50> $new_job
| 51> %base "22-117_DFT_B"
| 52> ! wB97X-D3 def2-TZVP TIGHTSCF CHELPG PMODEL
| 53>
| 54> %scf
| 55> MaxIter 1000
| 56> end
| 57>
| 58> * xyz 0 1
| 59>   C                    : 9.127973             -4.206590            -5.553106
| 60>   O                    : 9.198352             -3.754074            -6.873676
| 61>   H                    : 8.767707             -2.895544            -7.051401
| 62>   H                    : 9.159039             -3.377369            -4.790389
| 63>   H                    : 8.346103             -4.875158            -5.367010
| 64>   H                    : 10.099926            -4.613253            -5.262392
| 65>   C                      7.176351             -5.555444            -9.642628
| 66>   O                      6.863697             -4.634718            -10.690662
| 67>   H                      7.699356             -4.527552            -11.107944
| 68>   H                      8.036445             -5.232552            -9.075712
| 69>   H                      6.296603             -5.663072            -8.983723
| 70>   H                      7.540139             -6.544604            -9.957198
| 71> *
| 72>
| 73>                          ****END OF INPUT****
 Total Charge           Charge          ....    0
 Multiplicity           Mult            ....    1
 Number of Electrons    NEL             ....   36
Dispersion correction           -0.001235385
FINAL SINGLE POINT ENERGY      -231.462943831798
Dispersion correction           -0.000264855
FINAL SINGLE POINT ENERGY      -115.728480782958

CARTESIAN COORDINATES (ANGSTROEM)
---------------------------------
  C      9.127973   -4.206590   -5.553106
  O      9.198352   -3.754074   -6.873676
  H      8.767707   -2.895544   -7.051401
  H      9.159039   -3.377369   -4.790389
  H      8.346103   -4.875158   -5.367010
  H     10.099926   -4.613253   -5.262392
  C      7.176351   -5.555444   -9.642628
  O      6.863697   -4.634718  -10.690662
  H      7.699356   -4.527552  -11.107944
  H      8.036445   -5.232552   -9.075712
  H      6.296603   -5.663072   -8.983723
  H      7.540139   -6.544604   -9.957198

 Multiplicity           Mult            ....    1
 Number of Electrons    NEL             ....   18
 Basis Dimension        Dim             ....  172

ORBITAL ENERGIES
----------------

  NO   OCC          E(Eh)            E(eV)
   0   2.0000     -19.232639      -523.3467
   1   2.0000     -10.315390      -280.6960
   2   2.0000      -1.141154       -31.0524
   3   2.0000      -0.796552       -21.6753
   4   2.0000      -0.617504       -16.8031
   5   2.0000      -0.530358       -14.4318
   6   2.0000      -0.524073       -14.2607
   7   2.0000      -0.451027       -12.2731
   8   2.0000      -0.373678       -10.1683
   9   0.0000       0.081978         2.2307
  10   0.0000       0.117046         3.1850
  11   0.0000       0.151341         4.1182
  12   0.0000       0.165424         4.5014
  13   0.0000       0.187748         5.1089

MULLIKEN ATOMIC CHARGES
-----------------------
   0 C :   -0.000401
   1 O :    0.000324
   2 H :    0.000185
   3 H :   -0.000013
   4 H :   -0.000042
   5 H :   -0.000023
   6 C :   -0.179169
   7 O :   -0.456926
   8 H :    0.308545
   9 H :    0.104801
  10 H :    0.124678
  11 H :    0.098040
Sum of atomic charges:   -0.0000000

LOEWDIN ATOMIC CHARGES
----------------------
   0 C :   -0.000744
   1 O :   -0.002050
   2 H :   -0.000384
   3 H :   -0.000015
   4 H :   -0.000109
   5 H :   -0.000013
   6 C :   -0.379826
   7 O :   -0.073261
   8 H :    0.157630
   9 H :    0.092419
  10 H :    0.112642
  11 H :    0.093711

  Mayer bond orders larger than 0.1
B(  6-C ,  7-O ) :   0.9966 B(  6-C ,  9-H ) :   0.9787 B(  6-C , 10-H ) :   0.9760
B(  6-C , 11-H ) :   0.9670 B(  7-O ,  8-H ) :   0.9085

Dispersion correction           -0.000234564
FINAL SINGLE POINT ENERGY      -115.732481380953

DIPOLE MOMENT
-------------
                                X             Y             Z
Electronic contribution:     -0.63376       1.22548      -1.34513
Nuclear contribution   :      1.29428      -1.51023       1.50188
                        -----------------------------------------
Total Dipole Moment    :      0.66052      -0.28474       0.15675
                        -----------------------------------------
Magnitude (a.u.)       :      0.73616
Magnitude (Debye)      :      1.87118

Rotational constants in cm-1:     4.331254     0.825934     0.782829
Rotational constants in MHz : 129847.728064 24760.892062 23468.637743

                             ****ORCA TERMINATED NORMALLY****
TOTAL RUN TIME: 0 days 0 hours 1 minutes 3 seconds 695 msec
