                         Program Version 4.1.2  - RELEASE  -
|  1> #Run DFT-D3 single point of the dimer
|  2> ! wB97X-D3 def2-TZVP TIGHTSCF CHELPG PMODEL PAL8
|  3>
|  4> %base "13-66_DFT_AB"
|  5>
|  6> %scf
|  7> MaxIter 1000
|  8> end
|  9>
| 10> * xyz 0 1
| 11>   C                      6.579677             -4.656054            2.098122
| 12>   O                      6.418017             -5.253259            3.379541
| 13>   H                      5.507121             -5.599913            3.333520
| 14>   H                      5.924402             -3.782596            1.864666
| 15>   H                      7.523478             -4.087973            1.999012
| 16>   H                      6.439044             -5.427651            1.315982
| 17>   C                      5.373942             -1.129285            4.694461
| 18>   O                      4.224974             -1.272723            5.530153
| 19>   H                      3.640740             -1.777807            4.982052
| 20>   H                      5.386971             -1.888202            3.956504
| 21>   H                      5.324224             -0.209936            4.139052
| 22>   H                      6.365160             -1.008160            5.245248
| 23> *
| 24>
| 25> #Run DFT-D3 single point of the molecule with dimer basis set
| 26> $new_job
| 27> %base "13-66_DFT_A"
| 28> ! wB97X-D3 def2-TZVP TIGHTSCF CHELPG PMODEL
| 29>
| 30> %scf
| 31> MaxIter 1000
| 32> end
| 33>
| 34> * xyz 0 1
| 35>   C                      6.579677             -4.656054            2.098122
| 36>   O                      6.418017             -5.253259            3.379541
| 37>   H                      5.507121             -5.599913            3.333520
| 38>   H                      5.924402             -3.782596            1.864666
| 39>   H                      7.523478             -4.087973            1.999012
| 40>   H                      6.439044             -5.427651            1.315982
| 41>   C                    : 5.373942             -1.129285            4.694461
| 42>   O                    : 4.224974             -1.272723            5.530153
| 43>   H                    : 3.640740             -1.777807            4.982052
| 44>   H                    : 5.386971             -1.888202            3.956504
| 45>   H                    : 5.324224             -0.209936            4.139052
| 46>   H                    : 6.365160             -1.008160            5.245248
| 47> *
| 48>
| 49> #Run DFT-D3 single point of the particle with dimer basis set
| 50> $new_job
| 51> %base "13-66_DFT_B"
| 52> ! wB97X-D3 def2-TZVP TIGHTSCF CHELPG PMODEL
| 53>
| 54> %scf
| 55> MaxIter 1000
| 56> end
| 57>
| 58> * xyz 0 1
| 59>   C                    : 6.579677             -4.656054            2.098122
| 60>   O                    : 6.418017             -5.253259            3.379541
| 61>   H                    : 5.507121             -5.599913            3.333520
| 62>   H                    : 5.924402             -3.782596            1.864666
| 63>   H                    : 7.523478             -4.087973            1.999012
| 64>   H                    : 6.439044             -5.427651            1.315982
| 65>   C                      5.373942             -1.129285            4.694461
| 66>   O                      4.224974             -1.272723            5.530153
| 67>   H                      3.640740             -1.777807            4.982052
| 68>   H                      5.386971             -1.888202            3.956504
| 69>   H                      5.324224             -0.209936            4.139052
| 70>   H                      6.365160             -1.008160            5.245248
| 71> *
| 72>
| 73>                          ****END OF INPUT****
 Total Charge           Charge          ....    0
 Multiplicity           Mult            ....    1
 Number of Electrons    NEL             ....   36
Dispersion correction           -0.001163904
FINAL SINGLE POINT ENERGY      -231.459491143864
Dispersion correction           -0.000250269
FINAL SINGLE POINT ENERGY      -115.729991944535

CARTESIAN COORDINATES (ANGSTROEM)
---------------------------------
  C      6.579677   -4.656054    2.098122
  O      6.418017   -5.253259    3.379541
  H      5.507121   -5.599913    3.333520
  H      5.924402   -3.782596    1.864666
  H      7.523478   -4.087973    1.999012
  H      6.439044   -5.427651    1.315982
  C      5.373942   -1.129285    4.694461
  O      4.224974   -1.272723    5.530153
  H      3.640740   -1.777807    4.982052
  H      5.386971   -1.888202    3.956504
  H      5.324224   -0.209936    4.139052
  H      6.365160   -1.008160    5.245248

 Multiplicity           Mult            ....    1
 Number of Electrons    NEL             ....   18
 Basis Dimension        Dim             ....  172

ORBITAL ENERGIES
----------------

  NO   OCC          E(Eh)            E(eV)
   0   2.0000     -19.231359      -523.3119
   1   2.0000     -10.313902      -280.6555
   2   2.0000      -1.139346       -31.0032
   3   2.0000      -0.796646       -21.6778
   4   2.0000      -0.614381       -16.7182
   5   2.0000      -0.538434       -14.6515
   6   2.0000      -0.524535       -14.2733
   7   2.0000      -0.445356       -12.1188
   8   2.0000      -0.371699       -10.1144
   9   0.0000       0.077638         2.1126
  10   0.0000       0.119070         3.2401
  11   0.0000       0.148644         4.0448
  12   0.0000       0.165921         4.5150
  13   0.0000       0.184040         5.0080

MULLIKEN ATOMIC CHARGES
-----------------------
   0 C :   -0.000059
   1 O :    0.000074
   2 H :    0.000006
   3 H :   -0.000323
   4 H :   -0.000070
   5 H :   -0.000034
   6 C :   -0.175445
   7 O :   -0.461036
   8 H :    0.311493
   9 H :    0.105045
  10 H :    0.105421
  11 H :    0.114927
Sum of atomic charges:   -0.0000000

LOEWDIN ATOMIC CHARGES
----------------------
   0 C :   -0.001413
   1 O :   -0.000066
   2 H :   -0.000032
   3 H :   -0.001150
   4 H :   -0.000078
   5 H :   -0.000016
   6 C :   -0.377768
   7 O :   -0.079152
   8 H :    0.163127
   9 H :    0.088624
  10 H :    0.092095
  11 H :    0.115831

  Mayer bond orders larger than 0.1
B(  6-C ,  7-O ) :   1.0076 B(  6-C ,  9-H ) :   0.9892 B(  6-C , 10-H ) :   0.9749
B(  6-C , 11-H ) :   0.9733 B(  7-O ,  8-H ) :   0.9061

Dispersion correction           -0.000236431
FINAL SINGLE POINT ENERGY      -115.729174561414

DIPOLE MOMENT
-------------
                                X             Y             Z
Electronic contribution:     -1.42752      -0.22173       1.23299
Nuclear contribution   :      1.50616      -0.03308      -1.93265
                        -----------------------------------------
Total Dipole Moment    :      0.07864      -0.25481      -0.69966
                        -----------------------------------------
Magnitude (a.u.)       :      0.74875
Magnitude (Debye)      :      1.90318

Rotational constants in cm-1:     4.362981     0.826527     0.784460
Rotational constants in MHz : 130798.892738 24778.664760 23517.511379

                             ****ORCA TERMINATED NORMALLY****
TOTAL RUN TIME: 0 days 0 hours 1 minutes 10 seconds 972 msec
