                         Program Version 4.1.2  - RELEASE  -
|  1> #Run DFT-D3 single point of the dimer
|  2> ! wB97X-D3 def2-TZVP TIGHTSCF CHELPG PMODEL PAL8
|  3>
|  4> %base "17-97_DFT_AB"
|  5>
|  6> %scf
|  7> MaxIter 1000
|  8> end
|  9>
| 10> * xyz 0 1
| 11>   C                      6.352193             4.195746             -4.190666
| 12>   O                      5.100575             4.500113             -4.616961
| 13>   H                      4.495087             4.304367             -3.860152
| 14>   H                      7.093230             4.700914             -4.815245
| 15>   H                      6.551793             4.589563             -3.174605
| 16>   H                      6.623159             3.143777             -4.209572
| 17>   C                      5.883173             0.533306             -8.003842
| 18>   O                      5.021030             -0.564613            -7.820799
| 19>   H                      4.841940             -0.573416            -6.877146
| 20>   H                      6.488032             0.635416             -7.090840
| 21>   H                      6.629714             0.371416             -8.743524
| 22>   H                      5.350123             1.407600             -8.375128
| 23> *
| 24>
| 25> #Run DFT-D3 single point of the molecule with dimer basis set
| 26> $new_job
| 27> %base "17-97_DFT_A"
| 28> ! wB97X-D3 def2-TZVP TIGHTSCF CHELPG PMODEL
| 29>
| 30> %scf
| 31> MaxIter 1000
| 32> end
| 33>
| 34> * xyz 0 1
| 35>   C                      6.352193             4.195746             -4.190666
| 36>   O                      5.100575             4.500113             -4.616961
| 37>   H                      4.495087             4.304367             -3.860152
| 38>   H                      7.093230             4.700914             -4.815245
| 39>   H                      6.551793             4.589563             -3.174605
| 40>   H                      6.623159             3.143777             -4.209572
| 41>   C                    : 5.883173             0.533306             -8.003842
| 42>   O                    : 5.021030             -0.564613            -7.820799
| 43>   H                    : 4.841940             -0.573416            -6.877146
| 44>   H                    : 6.488032             0.635416             -7.090840
| 45>   H                    : 6.629714             0.371416             -8.743524
| 46>   H                    : 5.350123             1.407600             -8.375128
| 47> *
| 48>
| 49> #Run DFT-D3 single point of the particle with dimer basis set
| 50> $new_job
| 51> %base "17-97_DFT_B"
| 52> ! wB97X-D3 def2-TZVP TIGHTSCF CHELPG PMODEL
| 53>
| 54> %scf
| 55> MaxIter 1000
| 56> end
| 57>
| 58> * xyz 0 1
| 59>   C                    : 6.352193             4.195746             -4.190666
| 60>   O                    : 5.100575             4.500113             -4.616961
| 61>   H                    : 4.495087             4.304367             -3.860152
| 62>   H                    : 7.093230             4.700914             -4.815245
| 63>   H                    : 6.551793             4.589563             -3.174605
| 64>   H                    : 6.623159             3.143777             -4.209572
| 65>   C                      5.883173             0.533306             -8.003842
| 66>   O                      5.021030             -0.564613            -7.820799
| 67>   H                      4.841940             -0.573416            -6.877146
| 68>   H                      6.488032             0.635416             -7.090840
| 69>   H                      6.629714             0.371416             -8.743524
| 70>   H                      5.350123             1.407600             -8.375128
| 71> *
| 72>
| 73>                          ****END OF INPUT****
 Total Charge           Charge          ....    0
 Multiplicity           Mult            ....    1
 Number of Electrons    NEL             ....   36
Dispersion correction           -0.000697356
FINAL SINGLE POINT ENERGY      -231.464056098311
Dispersion correction           -0.000226117
FINAL SINGLE POINT ENERGY      -115.733146420898

CARTESIAN COORDINATES (ANGSTROEM)
---------------------------------
  C      6.352193    4.195746   -4.190666
  O      5.100575    4.500113   -4.616961
  H      4.495087    4.304367   -3.860152
  H      7.093230    4.700914   -4.815245
  H      6.551793    4.589563   -3.174605
  H      6.623159    3.143777   -4.209572
  C      5.883173    0.533306   -8.003842
  O      5.021030   -0.564613   -7.820799
  H      4.841940   -0.573416   -6.877146
  H      6.488032    0.635416   -7.090840
  H      6.629714    0.371416   -8.743524
  H      5.350123    1.407600   -8.375128

 Multiplicity           Mult            ....    1
 Number of Electrons    NEL             ....   18
 Basis Dimension        Dim             ....  172

ORBITAL ENERGIES
----------------

  NO   OCC          E(Eh)            E(eV)
   0   2.0000     -19.229500      -523.2613
   1   2.0000     -10.309054      -280.5236
   2   2.0000      -1.139714       -31.0132
   3   2.0000      -0.796922       -21.6853
   4   2.0000      -0.608340       -16.5538
   5   2.0000      -0.550135       -14.9699
   6   2.0000      -0.532558       -14.4916
   7   2.0000      -0.428555       -11.6616
   8   2.0000      -0.374600       -10.1934
   9   0.0000       0.080777         2.1981
  10   0.0000       0.113519         3.0890
  11   0.0000       0.152383         4.1466
  12   0.0000       0.162321         4.4170
  13   0.0000       0.185179         5.0390

MULLIKEN ATOMIC CHARGES
-----------------------
   0 C :    0.000041
   1 O :    0.000000
   2 H :   -0.000002
   3 H :   -0.000007
   4 H :   -0.000007
   5 H :   -0.000187
   6 C :   -0.169623
   7 O :   -0.467446
   8 H :    0.317181
   9 H :    0.101661
  10 H :    0.113645
  11 H :    0.104742
Sum of atomic charges:   -0.0000000

LOEWDIN ATOMIC CHARGES
----------------------
   0 C :   -0.000097
   1 O :   -0.000005
   2 H :   -0.000001
   3 H :   -0.000005
   4 H :   -0.000001
   5 H :   -0.000124
   6 C :   -0.391908
   7 O :   -0.075084
   8 H :    0.172353
   9 H :    0.100990
  10 H :    0.096972
  11 H :    0.096911

  Mayer bond orders larger than 0.1
B(  6-C ,  7-O ) :   1.0132 B(  6-C ,  9-H ) :   0.9909 B(  6-C , 10-H ) :   0.9742
B(  6-C , 11-H ) :   0.9751 B(  7-O ,  8-H ) :   0.9016

Dispersion correction           -0.000231179
FINAL SINGLE POINT ENERGY      -115.730660422815

DIPOLE MOMENT
-------------
                                X             Y             Z
Electronic contribution:     -1.16955      -1.40602       0.09067
Nuclear contribution   :      1.42639       1.80961       0.41961
                        -----------------------------------------
Total Dipole Moment    :      0.25684       0.40360       0.51029
                        -----------------------------------------
Magnitude (a.u.)       :      0.69946
Magnitude (Debye)      :      1.77789

Rotational constants in cm-1:     4.346990     0.842407     0.812263
Rotational constants in MHz : 130319.493449 25254.721192 24351.018403

                             ****ORCA TERMINATED NORMALLY****
TOTAL RUN TIME: 0 days 0 hours 1 minutes 7 seconds 747 msec
