                         Program Version 4.1.2  - RELEASE  -
|  1> #Run DFT-D3 single point of the dimer
|  2> ! wB97X-D3 def2-TZVP TIGHTSCF CHELPG PMODEL PAL8
|  3>
|  4> %base "7-142_DFT_AB"
|  5>
|  6> %scf
|  7> MaxIter 1000
|  8> end
|  9>
| 10> * xyz 0 1
| 11>   C                      -0.791871            0.813297             -8.061991
| 12>   O                      0.599258             1.023185             -8.096228
| 13>   H                      0.860506             1.887036             -7.719944
| 14>   H                      -1.410076            1.673867             -8.405220
| 15>   H                      -1.066712            -0.003070            -8.757313
| 16>   H                      -1.275459            0.581455             -7.114919
| 17>   C                      3.290816             2.639390             -6.435223
| 18>   O                      2.221507             3.210297             -7.185437
| 19>   H                      1.960015             3.895836             -6.607853
| 20>   H                      3.608396             1.654702             -6.888811
| 21>   H                      4.077403             3.324916             -6.281360
| 22>   H                      2.889501             2.348891             -5.371082
| 23> *
| 24>
| 25> #Run DFT-D3 single point of the molecule with dimer basis set
| 26> $new_job
| 27> %base "7-142_DFT_A"
| 28> ! wB97X-D3 def2-TZVP TIGHTSCF CHELPG PMODEL
| 29>
| 30> %scf
| 31> MaxIter 1000
| 32> end
| 33>
| 34> * xyz 0 1
| 35>   C                      -0.791871            0.813297             -8.061991
| 36>   O                      0.599258             1.023185             -8.096228
| 37>   H                      0.860506             1.887036             -7.719944
| 38>   H                      -1.410076            1.673867             -8.405220
| 39>   H                      -1.066712            -0.003070            -8.757313
| 40>   H                      -1.275459            0.581455             -7.114919
| 41>   C                    : 3.290816             2.639390             -6.435223
| 42>   O                    : 2.221507             3.210297             -7.185437
| 43>   H                    : 1.960015             3.895836             -6.607853
| 44>   H                    : 3.608396             1.654702             -6.888811
| 45>   H                    : 4.077403             3.324916             -6.281360
| 46>   H                    : 2.889501             2.348891             -5.371082
| 47> *
| 48>
| 49> #Run DFT-D3 single point of the particle with dimer basis set
| 50> $new_job
| 51> %base "7-142_DFT_B"
| 52> ! wB97X-D3 def2-TZVP TIGHTSCF CHELPG PMODEL
| 53>
| 54> %scf
| 55> MaxIter 1000
| 56> end
| 57>
| 58> * xyz 0 1
| 59>   C                    : -0.791871            0.813297             -8.061991
| 60>   O                    : 0.599258             1.023185             -8.096228
| 61>   H                    : 0.860506             1.887036             -7.719944
| 62>   H                    : -1.410076            1.673867             -8.405220
| 63>   H                    : -1.066712            -0.003070            -8.757313
| 64>   H                    : -1.275459            0.581455             -7.114919
| 65>   C                      3.290816             2.639390             -6.435223
| 66>   O                      2.221507             3.210297             -7.185437
| 67>   H                      1.960015             3.895836             -6.607853
| 68>   H                      3.608396             1.654702             -6.888811
| 69>   H                      4.077403             3.324916             -6.281360
| 70>   H                      2.889501             2.348891             -5.371082
| 71> *
| 72>
| 73>                          ****END OF INPUT****
 Total Charge           Charge          ....    0
 Multiplicity           Mult            ....    1
 Number of Electrons    NEL             ....   36
Dispersion correction           -0.001581545
FINAL SINGLE POINT ENERGY      -231.469927561372
Dispersion correction           -0.000281572
FINAL SINGLE POINT ENERGY      -115.733169719104

CARTESIAN COORDINATES (ANGSTROEM)
---------------------------------
  C     -0.791871    0.813297   -8.061991
  O      0.599258    1.023185   -8.096228
  H      0.860506    1.887036   -7.719944
  H     -1.410076    1.673867   -8.405220
  H     -1.066712   -0.003070   -8.757313
  H     -1.275459    0.581455   -7.114919
  C      3.290816    2.639390   -6.435223
  O      2.221507    3.210297   -7.185437
  H      1.960015    3.895836   -6.607853
  H      3.608396    1.654702   -6.888811
  H      4.077403    3.324916   -6.281360
  H      2.889501    2.348891   -5.371082

 Multiplicity           Mult            ....    1
 Number of Electrons    NEL             ....   18
 Basis Dimension        Dim             ....  172

ORBITAL ENERGIES
----------------

  NO   OCC          E(Eh)            E(eV)
   0   2.0000     -19.231458      -523.3146
   1   2.0000     -10.323675      -280.9215
   2   2.0000      -1.145181       -31.1620
   3   2.0000      -0.789811       -21.4918
   4   2.0000      -0.612504       -16.6671
   5   2.0000      -0.543247       -14.7825
   6   2.0000      -0.521247       -14.1838
   7   2.0000      -0.442251       -12.0343
   8   2.0000      -0.374717       -10.1966
   9   0.0000       0.095834         2.6078
  10   0.0000       0.118899         3.2354
  11   0.0000       0.154499         4.2041
  12   0.0000       0.182407         4.9635
  13   0.0000       0.195634         5.3235

MULLIKEN ATOMIC CHARGES
-----------------------
   0 C :   -0.000273
   1 O :   -0.000438
   2 H :   -0.008582
   3 H :   -0.000018
   4 H :   -0.000102
   5 H :    0.000077
   6 C :   -0.177747
   7 O :   -0.452970
   8 H :    0.308651
   9 H :    0.122481
  10 H :    0.116798
  11 H :    0.092122
Sum of atomic charges:   -0.0000000

LOEWDIN ATOMIC CHARGES
----------------------
   0 C :   -0.000869
   1 O :   -0.005169
   2 H :   -0.041420
   3 H :   -0.000037
   4 H :   -0.000026
   5 H :   -0.000017
   6 C :   -0.381613
   7 O :   -0.033108
   8 H :    0.154691
   9 H :    0.116451
  10 H :    0.085993
  11 H :    0.105123

  Mayer bond orders larger than 0.1
B(  6-C ,  7-O ) :   0.9787 B(  6-C ,  9-H ) :   0.9746 B(  6-C , 10-H ) :   0.9651
B(  6-C , 11-H ) :   0.9824 B(  7-O ,  8-H ) :   0.9072

Dispersion correction           -0.000225697
FINAL SINGLE POINT ENERGY      -115.728842188336

DIPOLE MOMENT
-------------
                                X             Y             Z
Electronic contribution:     -1.21237       0.73416      -1.25009
Nuclear contribution   :      1.48103      -0.51899       1.88524
                        -----------------------------------------
Total Dipole Moment    :      0.26865       0.21517       0.63515
                        -----------------------------------------
Magnitude (a.u.)       :      0.72242
Magnitude (Debye)      :      1.83624

Rotational constants in cm-1:     4.092421     0.828711     0.795079
Rotational constants in MHz : 122687.697309 24844.138572 23835.855509

                             ****ORCA TERMINATED NORMALLY****
TOTAL RUN TIME: 0 days 0 hours 1 minutes 10 seconds 325 msec
