                         Program Version 4.1.2  - RELEASE  -
|  1> #Run DFT-D3 single point of the dimer
|  2> ! wB97X-D3 def2-TZVP TIGHTSCF CHELPG PMODEL PAL8
|  3>
|  4> %base "22-154_DFT_AB"
|  5>
|  6> %scf
|  7> MaxIter 1000
|  8> end
|  9>
| 10> * xyz 0 1
| 11>   C                      3.964316             3.347006             8.560207
| 12>   O                      2.798326             3.703831             7.869844
| 13>   H                      2.181258             4.153824             8.473695
| 14>   H                      4.313658             4.116674             9.230770
| 15>   H                      3.796506             2.467997             9.113621
| 16>   H                      4.797698             3.092619             7.910218
| 17>   C                      0.515083             7.096819             8.367993
| 18>   O                      0.931852             6.012301             9.173151
| 19>   H                      1.008933             6.276622             10.084968
| 20>   H                      0.138819             7.924819             8.940735
| 21>   H                      1.286095             7.467547             7.725696
| 22>   H                      -0.189423            6.788194             7.637809
| 23> *
| 24>
| 25> #Run DFT-D3 single point of the molecule with dimer basis set
| 26> $new_job
| 27> %base "22-154_DFT_A"
| 28> ! wB97X-D3 def2-TZVP TIGHTSCF CHELPG PMODEL
| 29>
| 30> %scf
| 31> MaxIter 1000
| 32> end
| 33>
| 34> * xyz 0 1
| 35>   C                      3.964316             3.347006             8.560207
| 36>   O                      2.798326             3.703831             7.869844
| 37>   H                      2.181258             4.153824             8.473695
| 38>   H                      4.313658             4.116674             9.230770
| 39>   H                      3.796506             2.467997             9.113621
| 40>   H                      4.797698             3.092619             7.910218
| 41>   C                    : 0.515083             7.096819             8.367993
| 42>   O                    : 0.931852             6.012301             9.173151
| 43>   H                    : 1.008933             6.276622             10.084968
| 44>   H                    : 0.138819             7.924819             8.940735
| 45>   H                    : 1.286095             7.467547             7.725696
| 46>   H                    : -0.189423            6.788194             7.637809
| 47> *
| 48>
| 49> #Run DFT-D3 single point of the particle with dimer basis set
| 50> $new_job
| 51> %base "22-154_DFT_B"
| 52> ! wB97X-D3 def2-TZVP TIGHTSCF CHELPG PMODEL
| 53>
| 54> %scf
| 55> MaxIter 1000
| 56> end
| 57>
| 58> * xyz 0 1
| 59>   C                    : 3.964316             3.347006             8.560207
| 60>   O                    : 2.798326             3.703831             7.869844
| 61>   H                    : 2.181258             4.153824             8.473695
| 62>   H                    : 4.313658             4.116674             9.230770
| 63>   H                    : 3.796506             2.467997             9.113621
| 64>   H                    : 4.797698             3.092619             7.910218
| 65>   C                      0.515083             7.096819             8.367993
| 66>   O                      0.931852             6.012301             9.173151
| 67>   H                      1.008933             6.276622             10.084968
| 68>   H                      0.138819             7.924819             8.940735
| 69>   H                      1.286095             7.467547             7.725696
| 70>   H                      -0.189423            6.788194             7.637809
| 71> *
| 72>
| 73>                          ****END OF INPUT****
 Total Charge           Charge          ....    0
 Multiplicity           Mult            ....    1
 Number of Electrons    NEL             ....   36
Dispersion correction           -0.001375688
FINAL SINGLE POINT ENERGY      -231.472916920681
Dispersion correction           -0.000234032
FINAL SINGLE POINT ENERGY      -115.733992022078

CARTESIAN COORDINATES (ANGSTROEM)
---------------------------------
  C      3.964316    3.347006    8.560207
  O      2.798326    3.703831    7.869844
  H      2.181258    4.153824    8.473695
  H      4.313658    4.116674    9.230770
  H      3.796506    2.467997    9.113621
  H      4.797698    3.092619    7.910218
  C      0.515083    7.096819    8.367993
  O      0.931852    6.012301    9.173151
  H      1.008933    6.276622   10.084968
  H      0.138819    7.924819    8.940735
  H      1.286095    7.467547    7.725696
  H     -0.189423    6.788194    7.637809

 Multiplicity           Mult            ....    1
 Number of Electrons    NEL             ....   18
 Basis Dimension        Dim             ....  172

ORBITAL ENERGIES
----------------

  NO   OCC          E(Eh)            E(eV)
   0   2.0000     -19.229121      -523.2510
   1   2.0000     -10.304782      -280.4074
   2   2.0000      -1.135728       -30.9047
   3   2.0000      -0.805506       -21.9189
   4   2.0000      -0.615902       -16.7595
   5   2.0000      -0.542655       -14.7664
   6   2.0000      -0.531234       -14.4556
   7   2.0000      -0.436232       -11.8705
   8   2.0000      -0.371089       -10.0978
   9   0.0000       0.098076         2.6688
  10   0.0000       0.121142         3.2964
  11   0.0000       0.154245         4.1972
  12   0.0000       0.187188         5.0937
  13   0.0000       0.205330         5.5873

MULLIKEN ATOMIC CHARGES
-----------------------
   0 C :    0.000109
   1 O :   -0.000897
   2 H :   -0.005520
   3 H :   -0.001088
   4 H :   -0.000033
   5 H :   -0.000079
   6 C :   -0.161941
   7 O :   -0.475585
   8 H :    0.316351
   9 H :    0.106483
  10 H :    0.105167
  11 H :    0.117032
Sum of atomic charges:   -0.0000000

LOEWDIN ATOMIC CHARGES
----------------------
   0 C :   -0.000862
   1 O :   -0.001855
   2 H :   -0.019508
   3 H :   -0.000348
   4 H :   -0.000004
   5 H :   -0.000009
   6 C :   -0.375881
   7 O :   -0.054361
   8 H :    0.164405
   9 H :    0.095833
  10 H :    0.093967
  11 H :    0.098624

  Mayer bond orders larger than 0.1
B(  6-C ,  7-O ) :   1.0043 B(  6-C ,  9-H ) :   0.9793 B(  6-C , 10-H ) :   0.9775
B(  6-C , 11-H ) :   0.9803 B(  7-O ,  8-H ) :   0.8982

Dispersion correction           -0.000249858
FINAL SINGLE POINT ENERGY      -115.732739808235

DIPOLE MOMENT
-------------
                                X             Y             Z
Electronic contribution:      0.49348      -1.44847       1.01370
Nuclear contribution   :     -0.62695       2.08141      -0.75091
                        -----------------------------------------
Total Dipole Moment    :     -0.13347       0.63294       0.26279
                        -----------------------------------------
Magnitude (a.u.)       :      0.69820
Magnitude (Debye)      :      1.77469

Rotational constants in cm-1:     4.609194     0.832069     0.793479
Rotational constants in MHz : 138180.163513 24944.800983 23787.899314

                             ****ORCA TERMINATED NORMALLY****
TOTAL RUN TIME: 0 days 0 hours 1 minutes 0 seconds 477 msec
