                         Program Version 4.1.2  - RELEASE  -
|  1> #Run DFT-D3 single point of the dimer
|  2> ! wB97X-D3 def2-TZVP TIGHTSCF CHELPG PMODEL PAL8
|  3>
|  4> %base "15-85_DFT_AB"
|  5>
|  6> %scf
|  7> MaxIter 1000
|  8> end
|  9>
| 10> * xyz 0 1
| 11>   C                      -3.485730            -1.394707            -9.730617
| 12>   O                      -2.209008            -1.200329            -10.263792
| 13>   H                      -1.614533            -1.875366            -9.926658
| 14>   H                      -4.240539            -0.844386            -10.235814
| 15>   H                      -3.804167            -2.419185            -9.794614
| 16>   H                      -3.535408            -1.094552            -8.687688
| 17>   C                      -0.934420            -1.501478            -4.577652
| 18>   O                      -1.421709            -2.465679            -3.642206
| 19>   H                      -0.741423            -3.108189            -3.495462
| 20>   H                      -0.216309            -0.881202            -4.057632
| 21>   H                      -0.440611            -1.899452            -5.463402
| 22>   H                      -1.623490            -0.727408            -4.985823
| 23> *
| 24>
| 25> #Run DFT-D3 single point of the molecule with dimer basis set
| 26> $new_job
| 27> %base "15-85_DFT_A"
| 28> ! wB97X-D3 def2-TZVP TIGHTSCF CHELPG PMODEL
| 29>
| 30> %scf
| 31> MaxIter 1000
| 32> end
| 33>
| 34> * xyz 0 1
| 35>   C                      -3.485730            -1.394707            -9.730617
| 36>   O                      -2.209008            -1.200329            -10.263792
| 37>   H                      -1.614533            -1.875366            -9.926658
| 38>   H                      -4.240539            -0.844386            -10.235814
| 39>   H                      -3.804167            -2.419185            -9.794614
| 40>   H                      -3.535408            -1.094552            -8.687688
| 41>   C                    : -0.934420            -1.501478            -4.577652
| 42>   O                    : -1.421709            -2.465679            -3.642206
| 43>   H                    : -0.741423            -3.108189            -3.495462
| 44>   H                    : -0.216309            -0.881202            -4.057632
| 45>   H                    : -0.440611            -1.899452            -5.463402
| 46>   H                    : -1.623490            -0.727408            -4.985823
| 47> *
| 48>
| 49> #Run DFT-D3 single point of the particle with dimer basis set
| 50> $new_job
| 51> %base "15-85_DFT_B"
| 52> ! wB97X-D3 def2-TZVP TIGHTSCF CHELPG PMODEL
| 53>
| 54> %scf
| 55> MaxIter 1000
| 56> end
| 57>
| 58> * xyz 0 1
| 59>   C                    : -3.485730            -1.394707            -9.730617
| 60>   O                    : -2.209008            -1.200329            -10.263792
| 61>   H                    : -1.614533            -1.875366            -9.926658
| 62>   H                    : -4.240539            -0.844386            -10.235814
| 63>   H                    : -3.804167            -2.419185            -9.794614
| 64>   H                    : -3.535408            -1.094552            -8.687688
| 65>   C                      -0.934420            -1.501478            -4.577652
| 66>   O                      -1.421709            -2.465679            -3.642206
| 67>   H                      -0.741423            -3.108189            -3.495462
| 68>   H                      -0.216309            -0.881202            -4.057632
| 69>   H                      -0.440611            -1.899452            -5.463402
| 70>   H                      -1.623490            -0.727408            -4.985823
| 71> *
| 72>
| 73>                          ****END OF INPUT****
 Total Charge           Charge          ....    0
 Multiplicity           Mult            ....    1
 Number of Electrons    NEL             ....   36
Dispersion correction           -0.000651668
FINAL SINGLE POINT ENERGY      -231.464774037366
Dispersion correction           -0.000232783
FINAL SINGLE POINT ENERGY      -115.735173634826

CARTESIAN COORDINATES (ANGSTROEM)
---------------------------------
  C     -3.485730   -1.394707   -9.730617
  O     -2.209008   -1.200329  -10.263792
  H     -1.614533   -1.875366   -9.926658
  H     -4.240539   -0.844386  -10.235814
  H     -3.804167   -2.419185   -9.794614
  H     -3.535408   -1.094552   -8.687688
  C     -0.934420   -1.501478   -4.577652
  O     -1.421709   -2.465679   -3.642206
  H     -0.741423   -3.108189   -3.495462
  H     -0.216309   -0.881202   -4.057632
  H     -0.440611   -1.899452   -5.463402
  H     -1.623490   -0.727408   -4.985823

 Multiplicity           Mult            ....    1
 Number of Electrons    NEL             ....   18
 Basis Dimension        Dim             ....  172

ORBITAL ENERGIES
----------------

  NO   OCC          E(Eh)            E(eV)
   0   2.0000     -19.231470      -523.3149
   1   2.0000     -10.315452      -280.6977
   2   2.0000      -1.135124       -30.8883
   3   2.0000      -0.799864       -21.7654
   4   2.0000      -0.611786       -16.6475
   5   2.0000      -0.539203       -14.6725
   6   2.0000      -0.528439       -14.3796
   7   2.0000      -0.430699       -11.7199
   8   2.0000      -0.374376       -10.1873
   9   0.0000       0.084486         2.2990
  10   0.0000       0.118197         3.2163
  11   0.0000       0.143897         3.9156
  12   0.0000       0.161970         4.4074
  13   0.0000       0.196625         5.3504

MULLIKEN ATOMIC CHARGES
-----------------------
   0 C :    0.000030
   1 O :    0.000001
   2 H :   -0.000019
   3 H :   -0.000002
   4 H :   -0.000002
   5 H :   -0.000081
   6 C :   -0.178856
   7 O :   -0.474318
   8 H :    0.316670
   9 H :    0.106545
  10 H :    0.107329
  11 H :    0.122703
Sum of atomic charges:    0.0000000

LOEWDIN ATOMIC CHARGES
----------------------
   0 C :   -0.000015
   1 O :   -0.000001
   2 H :   -0.000014
   3 H :   -0.000000
   4 H :   -0.000000
   5 H :   -0.000043
   6 C :   -0.383180
   7 O :   -0.080502
   8 H :    0.162179
   9 H :    0.093700
  10 H :    0.093944
  11 H :    0.113933

  Mayer bond orders larger than 0.1
B(  6-C ,  7-O ) :   0.9943 B(  6-C ,  9-H ) :   0.9847 B(  6-C , 10-H ) :   0.9731
B(  6-C , 11-H ) :   0.9704 B(  7-O ,  8-H ) :   0.8990

Dispersion correction           -0.000259603
FINAL SINGLE POINT ENERGY      -115.729405671568

DIPOLE MOMENT
-------------
                                X             Y             Z
Electronic contribution:     -0.85521      -1.30416       1.20155
Nuclear contribution   :      1.49621       1.29929      -1.49320
                        -----------------------------------------
Total Dipole Moment    :      0.64100      -0.00487      -0.29165
                        -----------------------------------------
Magnitude (a.u.)       :      0.70425
Magnitude (Debye)      :      1.79006

Rotational constants in cm-1:     4.545918     0.801140     0.775535
Rotational constants in MHz : 136283.181439 24017.577684 23249.958698

                             ****ORCA TERMINATED NORMALLY****
TOTAL RUN TIME: 0 days 0 hours 1 minutes 2 seconds 726 msec
