                         Program Version 4.1.2  - RELEASE  -
|  1> #Run DFT-D3 single point of the dimer
|  2> ! wB97X-D3 def2-TZVP TIGHTSCF CHELPG PMODEL PAL8
|  3>
|  4> %base "14-151_DFT_AB"
|  5>
|  6> %scf
|  7> MaxIter 1000
|  8> end
|  9>
| 10> * xyz 0 1
| 11>   C                      -4.693738            -9.960927            -0.143126
| 12>   O                      -5.810414            -10.764771           0.021449
| 13>   H                      -5.463451            -11.665222           0.116989
| 14>   H                      -3.954437            -10.168414           0.577777
| 15>   H                      -4.210351            -10.245416           -1.111892
| 16>   H                      -4.893155            -8.871714            -0.233285
| 17>   C                      -6.584690            -7.195652            3.447492
| 18>   O                      -5.507805            -7.782798            2.709112
| 19>   H                      -5.203316            -8.573387            3.161655
| 20>   H                      -6.331861            -6.998877            4.494355
| 21>   H                      -6.910347            -6.252243            3.016668
| 22>   H                      -7.437697            -7.868007            3.394576
| 23> *
| 24>
| 25> #Run DFT-D3 single point of the molecule with dimer basis set
| 26> $new_job
| 27> %base "14-151_DFT_A"
| 28> ! wB97X-D3 def2-TZVP TIGHTSCF CHELPG PMODEL
| 29>
| 30> %scf
| 31> MaxIter 1000
| 32> end
| 33>
| 34> * xyz 0 1
| 35>   C                      -4.693738            -9.960927            -0.143126
| 36>   O                      -5.810414            -10.764771           0.021449
| 37>   H                      -5.463451            -11.665222           0.116989
| 38>   H                      -3.954437            -10.168414           0.577777
| 39>   H                      -4.210351            -10.245416           -1.111892
| 40>   H                      -4.893155            -8.871714            -0.233285
| 41>   C                    : -6.584690            -7.195652            3.447492
| 42>   O                    : -5.507805            -7.782798            2.709112
| 43>   H                    : -5.203316            -8.573387            3.161655
| 44>   H                    : -6.331861            -6.998877            4.494355
| 45>   H                    : -6.910347            -6.252243            3.016668
| 46>   H                    : -7.437697            -7.868007            3.394576
| 47> *
| 48>
| 49> #Run DFT-D3 single point of the particle with dimer basis set
| 50> $new_job
| 51> %base "14-151_DFT_B"
| 52> ! wB97X-D3 def2-TZVP TIGHTSCF CHELPG PMODEL
| 53>
| 54> %scf
| 55> MaxIter 1000
| 56> end
| 57>
| 58> * xyz 0 1
| 59>   C                    : -4.693738            -9.960927            -0.143126
| 60>   O                    : -5.810414            -10.764771           0.021449
| 61>   H                    : -5.463451            -11.665222           0.116989
| 62>   H                    : -3.954437            -10.168414           0.577777
| 63>   H                    : -4.210351            -10.245416           -1.111892
| 64>   H                    : -4.893155            -8.871714            -0.233285
| 65>   C                      -6.584690            -7.195652            3.447492
| 66>   O                      -5.507805            -7.782798            2.709112
| 67>   H                      -5.203316            -8.573387            3.161655
| 68>   H                      -6.331861            -6.998877            4.494355
| 69>   H                      -6.910347            -6.252243            3.016668
| 70>   H                      -7.437697            -7.868007            3.394576
| 71> *
| 72>
| 73>                          ****END OF INPUT****
 Total Charge           Charge          ....    0
 Multiplicity           Mult            ....    1
 Number of Electrons    NEL             ....   36
Dispersion correction           -0.001252287
FINAL SINGLE POINT ENERGY      -231.468023622030
Dispersion correction           -0.000212157
FINAL SINGLE POINT ENERGY      -115.731012024710

CARTESIAN COORDINATES (ANGSTROEM)
---------------------------------
  C     -4.693738   -9.960927   -0.143126
  O     -5.810414  -10.764771    0.021449
  H     -5.463451  -11.665222    0.116989
  H     -3.954437  -10.168414    0.577777
  H     -4.210351  -10.245416   -1.111892
  H     -4.893155   -8.871714   -0.233285
  C     -6.584690   -7.195652    3.447492
  O     -5.507805   -7.782798    2.709112
  H     -5.203316   -8.573387    3.161655
  H     -6.331861   -6.998877    4.494355
  H     -6.910347   -6.252243    3.016668
  H     -7.437697   -7.868007    3.394576

 Multiplicity           Mult            ....    1
 Number of Electrons    NEL             ....   18
 Basis Dimension        Dim             ....  172

ORBITAL ENERGIES
----------------

  NO   OCC          E(Eh)            E(eV)
   0   2.0000     -19.229505      -523.2614
   1   2.0000     -10.314087      -280.6606
   2   2.0000      -1.129641       -30.7391
   3   2.0000      -0.798311       -21.7231
   4   2.0000      -0.606373       -16.5002
   5   2.0000      -0.542309       -14.7570
   6   2.0000      -0.528488       -14.3809
   7   2.0000      -0.431996       -11.7552
   8   2.0000      -0.374129       -10.1806
   9   0.0000       0.089134         2.4255
  10   0.0000       0.123624         3.3640
  11   0.0000       0.152563         4.1514
  12   0.0000       0.175733         4.7819
  13   0.0000       0.195642         5.3237

MULLIKEN ATOMIC CHARGES
-----------------------
   0 C :   -0.003133
   1 O :    0.000371
   2 H :    0.000039
   3 H :   -0.000019
   4 H :   -0.000267
   5 H :   -0.002392
   6 C :   -0.154710
   7 O :   -0.479836
   8 H :    0.316888
   9 H :    0.101914
  10 H :    0.117695
  11 H :    0.103451
Sum of atomic charges:   -0.0000000

LOEWDIN ATOMIC CHARGES
----------------------
   0 C :   -0.005174
   1 O :   -0.000142
   2 H :   -0.000018
   3 H :   -0.000389
   4 H :   -0.000079
   5 H :   -0.002545
   6 C :   -0.368711
   7 O :   -0.087194
   8 H :    0.167719
   9 H :    0.095175
  10 H :    0.106998
  11 H :    0.094361

  Mayer bond orders larger than 0.1
B(  6-C ,  7-O ) :   0.9924 B(  6-C ,  9-H ) :   0.9729 B(  6-C , 10-H ) :   0.9736
B(  6-C , 11-H ) :   0.9819 B(  7-O ,  8-H ) :   0.8959

Dispersion correction           -0.000246858
FINAL SINGLE POINT ENERGY      -115.736147866821

DIPOLE MOMENT
-------------
                                X             Y             Z
Electronic contribution:      1.37591      -0.59183      -1.00319
Nuclear contribution   :     -1.63648       0.35002       1.60537
                        -----------------------------------------
Total Dipole Moment    :     -0.26057      -0.24181       0.60218
                        -----------------------------------------
Magnitude (a.u.)       :      0.69928
Magnitude (Debye)      :      1.77743

Rotational constants in cm-1:     4.360754     0.810432     0.785184
Rotational constants in MHz : 130732.105436 24296.136702 23539.230805

                             ****ORCA TERMINATED NORMALLY****
TOTAL RUN TIME: 0 days 0 hours 1 minutes 4 seconds 494 msec
