                         Program Version 4.1.2  - RELEASE  -
|  1> #Run DFT-D3 single point of the dimer
|  2> ! wB97X-D3 def2-TZVP TIGHTSCF CHELPG PMODEL PAL8
|  3>
|  4> %base "8-11_DFT_AB"
|  5>
|  6> %scf
|  7> MaxIter 1000
|  8> end
|  9>
| 10> * xyz 0 1
| 11>   C                      -9.226378            6.819918             10.298666
| 12>   O                      -9.148091            8.189575             10.728169
| 13>   H                      -8.323087            8.375170             11.172389
| 14>   H                      -9.134527            6.692401             9.233474
| 15>   H                      -8.394565            6.254475             10.685698
| 16>   H                      -10.206823           6.394376             10.486377
| 17>   C                      -6.088060            11.243761            10.245405
| 18>   O                      -4.953710            11.201807            11.142283
| 19>   H                      -4.215034            10.979532            10.575141
| 20>   H                      -6.122248            12.074318            9.524316
| 21>   H                      -6.166013            10.306812            9.666367
| 22>   H                      -6.992842            11.348077            10.940756
| 23> *
| 24>
| 25> #Run DFT-D3 single point of the molecule with dimer basis set
| 26> $new_job
| 27> %base "8-11_DFT_A"
| 28> ! wB97X-D3 def2-TZVP TIGHTSCF CHELPG PMODEL
| 29>
| 30> %scf
| 31> MaxIter 1000
| 32> end
| 33>
| 34> * xyz 0 1
| 35>   C                      -9.226378            6.819918             10.298666
| 36>   O                      -9.148091            8.189575             10.728169
| 37>   H                      -8.323087            8.375170             11.172389
| 38>   H                      -9.134527            6.692401             9.233474
| 39>   H                      -8.394565            6.254475             10.685698
| 40>   H                      -10.206823           6.394376             10.486377
| 41>   C                    : -6.088060            11.243761            10.245405
| 42>   O                    : -4.953710            11.201807            11.142283
| 43>   H                    : -4.215034            10.979532            10.575141
| 44>   H                    : -6.122248            12.074318            9.524316
| 45>   H                    : -6.166013            10.306812            9.666367
| 46>   H                    : -6.992842            11.348077            10.940756
| 47> *
| 48>
| 49> #Run DFT-D3 single point of the particle with dimer basis set
| 50> $new_job
| 51> %base "8-11_DFT_B"
| 52> ! wB97X-D3 def2-TZVP TIGHTSCF CHELPG PMODEL
| 53>
| 54> %scf
| 55> MaxIter 1000
| 56> end
| 57>
| 58> * xyz 0 1
| 59>   C                    : -9.226378            6.819918             10.298666
| 60>   O                    : -9.148091            8.189575             10.728169
| 61>   H                    : -8.323087            8.375170             11.172389
| 62>   H                    : -9.134527            6.692401             9.233474
| 63>   H                    : -8.394565            6.254475             10.685698
| 64>   H                    : -10.206823           6.394376             10.486377
| 65>   C                      -6.088060            11.243761            10.245405
| 66>   O                      -4.953710            11.201807            11.142283
| 67>   H                      -4.215034            10.979532            10.575141
| 68>   H                      -6.122248            12.074318            9.524316
| 69>   H                      -6.166013            10.306812            9.666367
| 70>   H                      -6.992842            11.348077            10.940756
| 71> *
| 72>
| 73>                          ****END OF INPUT****
 Total Charge           Charge          ....    0
 Multiplicity           Mult            ....    1
 Number of Electrons    NEL             ....   36
Dispersion correction           -0.001006396
FINAL SINGLE POINT ENERGY      -231.466333450956
Dispersion correction           -0.000261324
FINAL SINGLE POINT ENERGY      -115.731796878767

CARTESIAN COORDINATES (ANGSTROEM)
---------------------------------
  C     -9.226378    6.819918   10.298666
  O     -9.148091    8.189575   10.728169
  H     -8.323087    8.375170   11.172389
  H     -9.134527    6.692401    9.233474
  H     -8.394565    6.254475   10.685698
  H    -10.206823    6.394376   10.486377
  C     -6.088060   11.243761   10.245405
  O     -4.953710   11.201807   11.142283
  H     -4.215034   10.979532   10.575141
  H     -6.122248   12.074318    9.524316
  H     -6.166013   10.306812    9.666367
  H     -6.992842   11.348077   10.940756

 Multiplicity           Mult            ....    1
 Number of Electrons    NEL             ....   18
 Basis Dimension        Dim             ....  172

ORBITAL ENERGIES
----------------

  NO   OCC          E(Eh)            E(eV)
   0   2.0000     -19.233155      -523.3608
   1   2.0000     -10.323161      -280.9075
   2   2.0000      -1.130667       -30.7670
   3   2.0000      -0.790180       -21.5019
   4   2.0000      -0.607701       -16.5364
   5   2.0000      -0.536737       -14.6054
   6   2.0000      -0.512483       -13.9454
   7   2.0000      -0.441047       -12.0015
   8   2.0000      -0.377035       -10.2597
   9   0.0000       0.086011         2.3405
  10   0.0000       0.114921         3.1272
  11   0.0000       0.142939         3.8896
  12   0.0000       0.175823         4.7844
  13   0.0000       0.187810         5.1106

MULLIKEN ATOMIC CHARGES
-----------------------
   0 C :   -0.000121
   1 O :   -0.000032
   2 H :   -0.000064
   3 H :    0.000002
   4 H :    0.000003
   5 H :   -0.000001
   6 C :   -0.176115
   7 O :   -0.465883
   8 H :    0.309023
   9 H :    0.106031
  10 H :    0.107909
  11 H :    0.119247
Sum of atomic charges:    0.0000000

LOEWDIN ATOMIC CHARGES
----------------------
   0 C :   -0.000058
   1 O :   -0.000129
   2 H :   -0.000612
   3 H :   -0.000004
   4 H :   -0.000002
   5 H :   -0.000001
   6 C :   -0.375381
   7 O :   -0.096901
   8 H :    0.163848
   9 H :    0.093048
  10 H :    0.096233
  11 H :    0.119960

  Mayer bond orders larger than 0.1
B(  6-C ,  7-O ) :   1.0003 B(  6-C ,  9-H ) :   0.9629 B(  6-C , 10-H ) :   0.9756
B(  6-C , 11-H ) :   0.9765 B(  7-O ,  8-H ) :   0.9058

Dispersion correction           -0.000259490
FINAL SINGLE POINT ENERGY      -115.733502394078

DIPOLE MOMENT
-------------
                                X             Y             Z
Electronic contribution:      1.42781       0.01184       1.18665
Nuclear contribution   :     -1.41541      -0.13998      -1.89935
                        -----------------------------------------
Total Dipole Moment    :      0.01240      -0.12813      -0.71269
                        -----------------------------------------
Magnitude (a.u.)       :      0.72423
Magnitude (Debye)      :      1.84084

Rotational constants in cm-1:     4.121460     0.803943     0.769282
Rotational constants in MHz : 123558.272540 24101.597240 23062.482911

                             ****ORCA TERMINATED NORMALLY****
TOTAL RUN TIME: 0 days 0 hours 0 minutes 41 seconds 88 msec
