                         Program Version 4.1.2  - RELEASE  -
|  1> #Run DFT-D3 single point of the dimer
|  2> ! wB97X-D3 def2-TZVP TIGHTSCF CHELPG PMODEL PAL8
|  3>
|  4> %base "9-199_DFT_AB"
|  5>
|  6> %scf
|  7> MaxIter 1000
|  8> end
|  9>
| 10> * xyz 0 1
| 11>   C                      -0.289566            3.490172             -5.604841
| 12>   O                      0.546400             2.618883             -4.934804
| 13>   H                      -0.019279            2.235330             -4.215222
| 14>   H                      -0.671834            4.261893             -4.860705
| 15>   H                      0.183898             4.069390             -6.381247
| 16>   H                      -1.227951            3.063143             -5.952226
| 17>   C                      -2.027038            2.309967             -2.395359
| 18>   O                      -0.889161            1.571770             -2.714004
| 19>   H                      -0.947956            0.883920             -2.081068
| 20>   H                      -1.829656            3.063013             -1.589920
| 21>   H                      -2.405176            2.935118             -3.259349
| 22>   H                      -2.871821            1.686883             -2.115363
| 23> *
| 24>
| 25> #Run DFT-D3 single point of the molecule with dimer basis set
| 26> $new_job
| 27> %base "9-199_DFT_A"
| 28> ! wB97X-D3 def2-TZVP TIGHTSCF CHELPG PMODEL
| 29>
| 30> %scf
| 31> MaxIter 1000
| 32> end
| 33>
| 34> * xyz 0 1
| 35>   C                      -0.289566            3.490172             -5.604841
| 36>   O                      0.546400             2.618883             -4.934804
| 37>   H                      -0.019279            2.235330             -4.215222
| 38>   H                      -0.671834            4.261893             -4.860705
| 39>   H                      0.183898             4.069390             -6.381247
| 40>   H                      -1.227951            3.063143             -5.952226
| 41>   C                    : -2.027038            2.309967             -2.395359
| 42>   O                    : -0.889161            1.571770             -2.714004
| 43>   H                    : -0.947956            0.883920             -2.081068
| 44>   H                    : -1.829656            3.063013             -1.589920
| 45>   H                    : -2.405176            2.935118             -3.259349
| 46>   H                    : -2.871821            1.686883             -2.115363
| 47> *
| 48>
| 49> #Run DFT-D3 single point of the particle with dimer basis set
| 50> $new_job
| 51> %base "9-199_DFT_B"
| 52> ! wB97X-D3 def2-TZVP TIGHTSCF CHELPG PMODEL
| 53>
| 54> %scf
| 55> MaxIter 1000
| 56> end
| 57>
| 58> * xyz 0 1
| 59>   C                    : -0.289566            3.490172             -5.604841
| 60>   O                    : 0.546400             2.618883             -4.934804
| 61>   H                    : -0.019279            2.235330             -4.215222
| 62>   H                    : -0.671834            4.261893             -4.860705
| 63>   H                    : 0.183898             4.069390             -6.381247
| 64>   H                    : -1.227951            3.063143             -5.952226
| 65>   C                      -2.027038            2.309967             -2.395359
| 66>   O                      -0.889161            1.571770             -2.714004
| 67>   H                      -0.947956            0.883920             -2.081068
| 68>   H                      -1.829656            3.063013             -1.589920
| 69>   H                      -2.405176            2.935118             -3.259349
| 70>   H                      -2.871821            1.686883             -2.115363
| 71> *
| 72>
| 73>                          ****END OF INPUT****
 Total Charge           Charge          ....    0
 Multiplicity           Mult            ....    1
 Number of Electrons    NEL             ....   36
Dispersion correction           -0.002031018
FINAL SINGLE POINT ENERGY      -231.470504899572
Dispersion correction           -0.000221476
FINAL SINGLE POINT ENERGY      -115.730575382699

CARTESIAN COORDINATES (ANGSTROEM)
---------------------------------
  C     -0.289566    3.490172   -5.604841
  O      0.546400    2.618883   -4.934804
  H     -0.019279    2.235330   -4.215222
  H     -0.671834    4.261893   -4.860705
  H      0.183898    4.069390   -6.381247
  H     -1.227951    3.063143   -5.952226
  C     -2.027038    2.309967   -2.395359
  O     -0.889161    1.571770   -2.714004
  H     -0.947956    0.883920   -2.081068
  H     -1.829656    3.063013   -1.589920
  H     -2.405176    2.935118   -3.259349
  H     -2.871821    1.686883   -2.115363

 Multiplicity           Mult            ....    1
 Number of Electrons    NEL             ....   18
 Basis Dimension        Dim             ....  172

ORBITAL ENERGIES
----------------

  NO   OCC          E(Eh)            E(eV)
   0   2.0000     -19.234213      -523.3895
   1   2.0000     -10.317807      -280.7618
   2   2.0000      -1.155540       -31.4438
   3   2.0000      -0.790253       -21.5039
   4   2.0000      -0.618892       -16.8409
   5   2.0000      -0.543523       -14.7900
   6   2.0000      -0.529657       -14.4127
   7   2.0000      -0.438343       -11.9279
   8   2.0000      -0.375443       -10.2163
   9   0.0000       0.096361         2.6221
  10   0.0000       0.126118         3.4318
  11   0.0000       0.152467         4.1488
  12   0.0000       0.188135         5.1194
  13   0.0000       0.197569         5.3761

MULLIKEN ATOMIC CHARGES
-----------------------
   0 C :    0.002903
   1 O :    0.002317
   2 H :   -0.017200
   3 H :    0.000063
   4 H :    0.000089
   5 H :   -0.000829
   6 C :   -0.184019
   7 O :   -0.431129
   8 H :    0.306141
   9 H :    0.097768
  10 H :    0.115461
  11 H :    0.108437
Sum of atomic charges:   -0.0000000

LOEWDIN ATOMIC CHARGES
----------------------
   0 C :   -0.003541
   1 O :   -0.004920
   2 H :   -0.046516
   3 H :   -0.001331
   4 H :   -0.000012
   5 H :   -0.000554
   6 C :   -0.407777
   7 O :   -0.003190
   8 H :    0.160876
   9 H :    0.098097
  10 H :    0.114660
  11 H :    0.094207

  Mayer bond orders larger than 0.1
B(  6-C ,  7-O ) :   0.9961 B(  6-C ,  9-H ) :   0.9720 B(  6-C , 10-H ) :   0.9770
B(  6-C , 11-H ) :   0.9751 B(  7-O ,  8-H ) :   0.9063

Dispersion correction           -0.000231062
FINAL SINGLE POINT ENERGY      -115.732273048628

DIPOLE MOMENT
-------------
                                X             Y             Z
Electronic contribution:      1.60648      -1.00884      -0.52870
Nuclear contribution   :     -2.07981       0.82781       1.03383
                        -----------------------------------------
Total Dipole Moment    :     -0.47334      -0.18102       0.50513
                        -----------------------------------------
Magnitude (a.u.)       :      0.71552
Magnitude (Debye)      :      1.81872

Rotational constants in cm-1:     4.251383     0.848146     0.819414
Rotational constants in MHz : 127453.251872 25426.775136 24565.406640

                             ****ORCA TERMINATED NORMALLY****
TOTAL RUN TIME: 0 days 0 hours 0 minutes 46 seconds 981 msec
