                         Program Version 4.1.2  - RELEASE  -
|  1> #Run DFT-D3 single point of the dimer
|  2> ! wB97X-D3 def2-TZVP TIGHTSCF CHELPG PMODEL PAL8
|  3>
|  4> %base "7-104_DFT_AB"
|  5>
|  6> %scf
|  7> MaxIter 1000
|  8> end
|  9>
| 10> * xyz 0 1
| 11>   C                      -2.638835            -6.614666            -7.420561
| 12>   O                      -2.992376            -6.578243            -8.791841
| 13>   H                      -2.217192            -6.413573            -9.277582
| 14>   H                      -1.667935            -6.968071            -7.283540
| 15>   H                      -2.582873            -5.608869            -6.989358
| 16>   H                      -3.339959            -7.212623            -6.807963
| 17>   C                      2.456452             -8.331689            -7.586011
| 18>   O                      2.874135             -8.174088            -6.283950
| 19>   H                      2.866683             -7.217742            -6.105022
| 20>   H                      1.521849             -7.794114            -7.665348
| 21>   H                      3.150249             -8.042174            -8.359437
| 22>   H                      2.292810             -9.379852            -7.728508
| 23> *
| 24>
| 25> #Run DFT-D3 single point of the molecule with dimer basis set
| 26> $new_job
| 27> %base "7-104_DFT_A"
| 28> ! wB97X-D3 def2-TZVP TIGHTSCF CHELPG PMODEL
| 29>
| 30> %scf
| 31> MaxIter 1000
| 32> end
| 33>
| 34> * xyz 0 1
| 35>   C                      -2.638835            -6.614666            -7.420561
| 36>   O                      -2.992376            -6.578243            -8.791841
| 37>   H                      -2.217192            -6.413573            -9.277582
| 38>   H                      -1.667935            -6.968071            -7.283540
| 39>   H                      -2.582873            -5.608869            -6.989358
| 40>   H                      -3.339959            -7.212623            -6.807963
| 41>   C                    : 2.456452             -8.331689            -7.586011
| 42>   O                    : 2.874135             -8.174088            -6.283950
| 43>   H                    : 2.866683             -7.217742            -6.105022
| 44>   H                    : 1.521849             -7.794114            -7.665348
| 45>   H                    : 3.150249             -8.042174            -8.359437
| 46>   H                    : 2.292810             -9.379852            -7.728508
| 47> *
| 48>
| 49> #Run DFT-D3 single point of the particle with dimer basis set
| 50> $new_job
| 51> %base "7-104_DFT_B"
| 52> ! wB97X-D3 def2-TZVP TIGHTSCF CHELPG PMODEL
| 53>
| 54> %scf
| 55> MaxIter 1000
| 56> end
| 57>
| 58> * xyz 0 1
| 59>   C                    : -2.638835            -6.614666            -7.420561
| 60>   O                    : -2.992376            -6.578243            -8.791841
| 61>   H                    : -2.217192            -6.413573            -9.277582
| 62>   H                    : -1.667935            -6.968071            -7.283540
| 63>   H                    : -2.582873            -5.608869            -6.989358
| 64>   H                    : -3.339959            -7.212623            -6.807963
| 65>   C                      2.456452             -8.331689            -7.586011
| 66>   O                      2.874135             -8.174088            -6.283950
| 67>   H                      2.866683             -7.217742            -6.105022
| 68>   H                      1.521849             -7.794114            -7.665348
| 69>   H                      3.150249             -8.042174            -8.359437
| 70>   H                      2.292810             -9.379852            -7.728508
| 71> *
| 72>
| 73>                          ****END OF INPUT****
 Total Charge           Charge          ....    0
 Multiplicity           Mult            ....    1
 Number of Electrons    NEL             ....   36
Dispersion correction           -0.000723987
FINAL SINGLE POINT ENERGY      -231.465274865782
Dispersion correction           -0.000235168
FINAL SINGLE POINT ENERGY      -115.732216161389

CARTESIAN COORDINATES (ANGSTROEM)
---------------------------------
  C     -2.638835   -6.614666   -7.420561
  O     -2.992376   -6.578243   -8.791841
  H     -2.217192   -6.413573   -9.277582
  H     -1.667935   -6.968071   -7.283540
  H     -2.582873   -5.608869   -6.989358
  H     -3.339959   -7.212623   -6.807963
  C      2.456452   -8.331689   -7.586011
  O      2.874135   -8.174088   -6.283950
  H      2.866683   -7.217742   -6.105022
  H      1.521849   -7.794114   -7.665348
  H      3.150249   -8.042174   -8.359437
  H      2.292810   -9.379852   -7.728508

 Multiplicity           Mult            ....    1
 Number of Electrons    NEL             ....   18
 Basis Dimension        Dim             ....  172

ORBITAL ENERGIES
----------------

  NO   OCC          E(Eh)            E(eV)
   0   2.0000     -19.229223      -523.2538
   1   2.0000     -10.302488      -280.3449
   2   2.0000      -1.146528       -31.1986
   3   2.0000      -0.794665       -21.6239
   4   2.0000      -0.615382       -16.7454
   5   2.0000      -0.554395       -15.0859
   6   2.0000      -0.529911       -14.4196
   7   2.0000      -0.431042       -11.7293
   8   2.0000      -0.371358       -10.1052
   9   0.0000       0.082623         2.2483
  10   0.0000       0.115492         3.1427
  11   0.0000       0.155770         4.2387
  12   0.0000       0.165642         4.5073
  13   0.0000       0.183753         5.0002

MULLIKEN ATOMIC CHARGES
-----------------------
   0 C :   -0.000410
   1 O :    0.000022
   2 H :   -0.000033
   3 H :    0.000566
   4 H :    0.000011
   5 H :    0.000004
   6 C :   -0.150359
   7 O :   -0.468258
   8 H :    0.314298
   9 H :    0.094399
  10 H :    0.096063
  11 H :    0.113696
Sum of atomic charges:    0.0000000

LOEWDIN ATOMIC CHARGES
----------------------
   0 C :   -0.000140
   1 O :   -0.000002
   2 H :   -0.000022
   3 H :   -0.000404
   4 H :   -0.000001
   5 H :   -0.000001
   6 C :   -0.410592
   7 O :   -0.055807
   8 H :    0.179239
   9 H :    0.093794
  10 H :    0.089092
  11 H :    0.104845

  Mayer bond orders larger than 0.1
B(  6-C ,  7-O ) :   1.0049 B(  6-C ,  9-H ) :   0.9919 B(  6-C , 10-H ) :   0.9664
B(  6-C , 11-H ) :   0.9761 B(  7-O ,  8-H ) :   0.8988

Dispersion correction           -0.000211069
FINAL SINGLE POINT ENERGY      -115.733045316696

DIPOLE MOMENT
-------------
                                X             Y             Z
Electronic contribution:      0.60779       0.08722       1.65872
Nuclear contribution   :     -0.77481       0.43771      -2.03200
                        -----------------------------------------
Total Dipole Moment    :     -0.16702       0.52493      -0.37328
                        -----------------------------------------
Magnitude (a.u.)       :      0.66542
Magnitude (Debye)      :      1.69136

Rotational constants in cm-1:     4.344962     0.878786     0.845476
Rotational constants in MHz : 130258.697310 26345.352626 25346.735760

                             ****ORCA TERMINATED NORMALLY****
TOTAL RUN TIME: 0 days 0 hours 1 minutes 10 seconds 727 msec
