                         Program Version 4.1.2  - RELEASE  -
|  1> #Run DFT-D3 single point of the dimer
|  2> ! wB97X-D3 def2-TZVP TIGHTSCF CHELPG PMODEL PAL8
|  3>
|  4> %base "1-27_DFT_AB"
|  5>
|  6> %scf
|  7> MaxIter 1000
|  8> end
|  9>
| 10> * xyz 0 1
| 11>   C                      -2.881200            5.269052             1.066537
| 12>   O                      -2.445104            4.075524             0.341486
| 13>   H                      -2.756895            4.205874             -0.534556
| 14>   H                      -3.832270            5.165989             1.402556
| 15>   H                      -2.191036            5.618454             1.900053
| 16>   H                      -2.957396            6.094008             0.292697
| 17>   C                      -3.789158            7.906341             -2.669329
| 18>   O                      -4.091139            7.734431             -4.022103
| 19>   H                      -3.333544            7.539611             -4.474038
| 20>   H                      -4.517442            8.488544             -2.173604
| 21>   H                      -3.769773            6.916868             -2.177394
| 22>   H                      -2.835355            8.451827             -2.529979
| 23> *
| 24>
| 25> #Run DFT-D3 single point of the molecule with dimer basis set
| 26> $new_job
| 27> %base "1-27_DFT_A"
| 28> ! wB97X-D3 def2-TZVP TIGHTSCF CHELPG PMODEL
| 29>
| 30> %scf
| 31> MaxIter 1000
| 32> end
| 33>
| 34> * xyz 0 1
| 35>   C                      -2.881200            5.269052             1.066537
| 36>   O                      -2.445104            4.075524             0.341486
| 37>   H                      -2.756895            4.205874             -0.534556
| 38>   H                      -3.832270            5.165989             1.402556
| 39>   H                      -2.191036            5.618454             1.900053
| 40>   H                      -2.957396            6.094008             0.292697
| 41>   C                    : -3.789158            7.906341             -2.669329
| 42>   O                    : -4.091139            7.734431             -4.022103
| 43>   H                    : -3.333544            7.539611             -4.474038
| 44>   H                    : -4.517442            8.488544             -2.173604
| 45>   H                    : -3.769773            6.916868             -2.177394
| 46>   H                    : -2.835355            8.451827             -2.529979
| 47> *
| 48>
| 49> #Run DFT-D3 single point of the particle with dimer basis set
| 50> $new_job
| 51> %base "1-27_DFT_B"
| 52> ! wB97X-D3 def2-TZVP TIGHTSCF CHELPG PMODEL
| 53>
| 54> %scf
| 55> MaxIter 1000
| 56> end
| 57>
| 58> * xyz 0 1
| 59>   C                    : -2.881200            5.269052             1.066537
| 60>   O                    : -2.445104            4.075524             0.341486
| 61>   H                    : -2.756895            4.205874             -0.534556
| 62>   H                    : -3.832270            5.165989             1.402556
| 63>   H                    : -2.191036            5.618454             1.900053
| 64>   H                    : -2.957396            6.094008             0.292697
| 65>   C                      -3.789158            7.906341             -2.669329
| 66>   O                      -4.091139            7.734431             -4.022103
| 67>   H                      -3.333544            7.539611             -4.474038
| 68>   H                      -4.517442            8.488544             -2.173604
| 69>   H                      -3.769773            6.916868             -2.177394
| 70>   H                      -2.835355            8.451827             -2.529979
| 71> *
| 72>
| 73>                          ****END OF INPUT****
 Total Charge           Charge          ....    0
 Multiplicity           Mult            ....    1
 Number of Electrons    NEL             ....   36
Dispersion correction           -0.001081662
FINAL SINGLE POINT ENERGY      -231.456853044498
Dispersion correction           -0.000244874
FINAL SINGLE POINT ENERGY      -115.724543051146

CARTESIAN COORDINATES (ANGSTROEM)
---------------------------------
  C     -2.881200    5.269052    1.066537
  O     -2.445104    4.075524    0.341486
  H     -2.756895    4.205874   -0.534556
  H     -3.832270    5.165989    1.402556
  H     -2.191036    5.618454    1.900053
  H     -2.957396    6.094008    0.292697
  C     -3.789158    7.906341   -2.669329
  O     -4.091139    7.734431   -4.022103
  H     -3.333544    7.539611   -4.474038
  H     -4.517442    8.488544   -2.173604
  H     -3.769773    6.916868   -2.177394
  H     -2.835355    8.451827   -2.529979

 Multiplicity           Mult            ....    1
 Number of Electrons    NEL             ....   18
 Basis Dimension        Dim             ....  172

ORBITAL ENERGIES
----------------

  NO   OCC          E(Eh)            E(eV)
   0   2.0000     -19.222794      -523.0788
   1   2.0000     -10.310416      -280.5607
   2   2.0000      -1.151894       -31.3446
   3   2.0000      -0.802757       -21.8441
   4   2.0000      -0.617814       -16.8116
   5   2.0000      -0.546832       -14.8801
   6   2.0000      -0.535720       -14.5777
   7   2.0000      -0.431134       -11.7318
   8   2.0000      -0.373997       -10.1770
   9   0.0000       0.084682         2.3043
  10   0.0000       0.122299         3.3279
  11   0.0000       0.154826         4.2130
  12   0.0000       0.159269         4.3339
  13   0.0000       0.196933         5.3588

MULLIKEN ATOMIC CHARGES
-----------------------
   0 C :    0.001457
   1 O :   -0.000000
   2 H :   -0.000277
   3 H :   -0.000136
   4 H :   -0.000070
   5 H :   -0.002743
   6 C :   -0.160512
   7 O :   -0.461634
   8 H :    0.303807
   9 H :    0.120071
  10 H :    0.100732
  11 H :    0.099305
Sum of atomic charges:    0.0000000

LOEWDIN ATOMIC CHARGES
----------------------
   0 C :   -0.000747
   1 O :   -0.000014
   2 H :   -0.000394
   3 H :   -0.000017
   4 H :   -0.000005
   5 H :   -0.002470
   6 C :   -0.388180
   7 O :   -0.036154
   8 H :    0.131067
   9 H :    0.098581
  10 H :    0.099229
  11 H :    0.099103

  Mayer bond orders larger than 0.1
B(  6-C ,  7-O ) :   0.9982 B(  6-C ,  9-H ) :   0.9699 B(  6-C , 10-H ) :   0.9809
B(  6-C , 11-H ) :   0.9822 B(  7-O ,  8-H ) :   0.9140

Dispersion correction           -0.000227537
FINAL SINGLE POINT ENERGY      -115.731883500227

DIPOLE MOMENT
-------------
                                X             Y             Z
Electronic contribution:     -0.53071      -0.16840      -1.73603
Nuclear contribution   :      1.13779       0.13355       1.96930
                        -----------------------------------------
Total Dipole Moment    :      0.60708      -0.03486       0.23327
                        -----------------------------------------
Magnitude (a.u.)       :      0.65129
Magnitude (Debye)      :      1.65545

Rotational constants in cm-1:     4.432208     0.846307     0.826070
Rotational constants in MHz : 132874.254741 25371.638515 24764.967216

                             ****ORCA TERMINATED NORMALLY****
TOTAL RUN TIME: 0 days 0 hours 4 minutes 18 seconds 634 msec
