                         Program Version 4.1.2  - RELEASE  -
|  1> #Run DFT-D3 single point of the dimer
|  2> ! wB97X-D3 def2-TZVP TIGHTSCF CHELPG PMODEL PAL8
|  3>
|  4> %base "3-31_DFT_AB"
|  5>
|  6> %scf
|  7> MaxIter 1000
|  8> end
|  9>
| 10> * xyz 0 1
| 11>   C                      -4.983724            -1.861540            -7.037725
| 12>   O                      -5.308556            -0.500746            -6.993364
| 13>   H                      -5.230599            -0.272961            -7.890385
| 14>   H                      -4.141318            -2.148880            -7.659056
| 15>   H                      -4.764248            -2.337265            -6.067641
| 16>   H                      -5.873911            -2.396272            -7.501663
| 17>   C                      -2.126235            -0.360681            -2.637112
| 18>   O                      -1.117700            -1.154782            -3.243928
| 19>   H                      -0.344218            -1.171476            -2.675353
| 20>   H                      -2.847046            -0.072665            -3.423563
| 21>   H                      -2.661588            -0.937043            -1.872576
| 22>   H                      -1.636193            0.528980             -2.202952
| 23> *
| 24>
| 25> #Run DFT-D3 single point of the molecule with dimer basis set
| 26> $new_job
| 27> %base "3-31_DFT_A"
| 28> ! wB97X-D3 def2-TZVP TIGHTSCF CHELPG PMODEL
| 29>
| 30> %scf
| 31> MaxIter 1000
| 32> end
| 33>
| 34> * xyz 0 1
| 35>   C                      -4.983724            -1.861540            -7.037725
| 36>   O                      -5.308556            -0.500746            -6.993364
| 37>   H                      -5.230599            -0.272961            -7.890385
| 38>   H                      -4.141318            -2.148880            -7.659056
| 39>   H                      -4.764248            -2.337265            -6.067641
| 40>   H                      -5.873911            -2.396272            -7.501663
| 41>   C                    : -2.126235            -0.360681            -2.637112
| 42>   O                    : -1.117700            -1.154782            -3.243928
| 43>   H                    : -0.344218            -1.171476            -2.675353
| 44>   H                    : -2.847046            -0.072665            -3.423563
| 45>   H                    : -2.661588            -0.937043            -1.872576
| 46>   H                    : -1.636193            0.528980             -2.202952
| 47> *
| 48>
| 49> #Run DFT-D3 single point of the particle with dimer basis set
| 50> $new_job
| 51> %base "3-31_DFT_B"
| 52> ! wB97X-D3 def2-TZVP TIGHTSCF CHELPG PMODEL
| 53>
| 54> %scf
| 55> MaxIter 1000
| 56> end
| 57>
| 58> * xyz 0 1
| 59>   C                    : -4.983724            -1.861540            -7.037725
| 60>   O                    : -5.308556            -0.500746            -6.993364
| 61>   H                    : -5.230599            -0.272961            -7.890385
| 62>   H                    : -4.141318            -2.148880            -7.659056
| 63>   H                    : -4.764248            -2.337265            -6.067641
| 64>   H                    : -5.873911            -2.396272            -7.501663
| 65>   C                      -2.126235            -0.360681            -2.637112
| 66>   O                      -1.117700            -1.154782            -3.243928
| 67>   H                      -0.344218            -1.171476            -2.675353
| 68>   H                      -2.847046            -0.072665            -3.423563
| 69>   H                      -2.661588            -0.937043            -1.872576
| 70>   H                      -1.636193            0.528980             -2.202952
| 71> *
| 72>
| 73>                          ****END OF INPUT****
 Total Charge           Charge          ....    0
 Multiplicity           Mult            ....    1
 Number of Electrons    NEL             ....   36
Dispersion correction           -0.000679570
FINAL SINGLE POINT ENERGY      -231.466309126945
Dispersion correction           -0.000226256
FINAL SINGLE POINT ENERGY      -115.729632223478

CARTESIAN COORDINATES (ANGSTROEM)
---------------------------------
  C     -4.983724   -1.861540   -7.037725
  O     -5.308556   -0.500746   -6.993364
  H     -5.230599   -0.272961   -7.890385
  H     -4.141318   -2.148880   -7.659056
  H     -4.764248   -2.337265   -6.067641
  H     -5.873911   -2.396272   -7.501663
  C     -2.126235   -0.360681   -2.637112
  O     -1.117700   -1.154782   -3.243928
  H     -0.344218   -1.171476   -2.675353
  H     -2.847046   -0.072665   -3.423563
  H     -2.661588   -0.937043   -1.872576
  H     -1.636193    0.528980   -2.202952

 Multiplicity           Mult            ....    1
 Number of Electrons    NEL             ....   18
 Basis Dimension        Dim             ....  172

ORBITAL ENERGIES
----------------

  NO   OCC          E(Eh)            E(eV)
   0   2.0000     -19.225986      -523.1657
   1   2.0000     -10.316158      -280.7169
   2   2.0000      -1.132248       -30.8100
   3   2.0000      -0.792343       -21.5608
   4   2.0000      -0.606568       -16.5056
   5   2.0000      -0.543355       -14.7854
   6   2.0000      -0.526426       -14.3248
   7   2.0000      -0.430324       -11.7097
   8   2.0000      -0.371560       -10.1107
   9   0.0000       0.088537         2.4092
  10   0.0000       0.114419         3.1135
  11   0.0000       0.153886         4.1874
  12   0.0000       0.169964         4.6250
  13   0.0000       0.182077         4.9546

MULLIKEN ATOMIC CHARGES
-----------------------
   0 C :   -0.000008
   1 O :   -0.000015
   2 H :   -0.000002
   3 H :   -0.000002
   4 H :   -0.000008
   5 H :    0.000002
   6 C :   -0.154492
   7 O :   -0.482179
   8 H :    0.313628
   9 H :    0.120645
  10 H :    0.100928
  11 H :    0.101503
Sum of atomic charges:   -0.0000000

LOEWDIN ATOMIC CHARGES
----------------------
   0 C :   -0.000049
   1 O :   -0.000012
   2 H :   -0.000001
   3 H :   -0.000001
   4 H :   -0.000031
   5 H :   -0.000000
   6 C :   -0.379750
   7 O :   -0.088268
   8 H :    0.165870
   9 H :    0.110543
  10 H :    0.094049
  11 H :    0.097651

  Mayer bond orders larger than 0.1
B(  6-C ,  7-O ) :   0.9962 B(  6-C ,  9-H ) :   0.9727 B(  6-C , 10-H ) :   0.9718
B(  6-C , 11-H ) :   0.9842 B(  7-O ,  8-H ) :   0.8999

Dispersion correction           -0.000235215
FINAL SINGLE POINT ENERGY      -115.736081260191

DIPOLE MOMENT
-------------
                                X             Y             Z
Electronic contribution:      1.13879      -0.99437      -0.84013
Nuclear contribution   :     -1.04962       1.31039       1.43910
                        -----------------------------------------
Total Dipole Moment    :      0.08918       0.31602       0.59897
                        -----------------------------------------
Magnitude (a.u.)       :      0.68307
Magnitude (Debye)      :      1.73622

Rotational constants in cm-1:     4.167134     0.831659     0.801138
Rotational constants in MHz : 124927.536966 24932.521319 24017.505871

                             ****ORCA TERMINATED NORMALLY****
TOTAL RUN TIME: 0 days 0 hours 6 minutes 23 seconds 76 msec
