                         Program Version 4.1.2  - RELEASE  -
|  1> #Run DFT-D3 single point of the dimer
|  2> ! wB97X-D3 def2-TZVP TIGHTSCF CHELPG PMODEL PAL8
|  3>
|  4> %base "18-39_DFT_AB"
|  5>
|  6> %scf
|  7> MaxIter 1000
|  8> end
|  9>
| 10> * xyz 0 1
| 11>   C                      5.188788             2.614549             -0.430988
| 12>   O                      4.272714             3.629414             -0.212891
| 13>   H                      4.735754             4.461235             -0.188900
| 14>   H                      5.899015             2.492255             0.391204
| 15>   H                      4.718363             1.670627             -0.695147
| 16>   H                      5.822392             2.953750             -1.309417
| 17>   C                      8.957297             2.814425             -0.415852
| 18>   O                      9.757389             2.980019             0.729475
| 19>   H                      10.347194            3.744155             0.637486
| 20>   H                      8.302712             3.696454             -0.625597
| 21>   H                      9.605838             2.458936             -1.185200
| 22>   H                      8.323493             1.991709             -0.228460
| 23> *
| 24>
| 25> #Run DFT-D3 single point of the molecule with dimer basis set
| 26> $new_job
| 27> %base "18-39_DFT_A"
| 28> ! wB97X-D3 def2-TZVP TIGHTSCF CHELPG PMODEL
| 29>
| 30> %scf
| 31> MaxIter 1000
| 32> end
| 33>
| 34> * xyz 0 1
| 35>   C                      5.188788             2.614549             -0.430988
| 36>   O                      4.272714             3.629414             -0.212891
| 37>   H                      4.735754             4.461235             -0.188900
| 38>   H                      5.899015             2.492255             0.391204
| 39>   H                      4.718363             1.670627             -0.695147
| 40>   H                      5.822392             2.953750             -1.309417
| 41>   C                    : 8.957297             2.814425             -0.415852
| 42>   O                    : 9.757389             2.980019             0.729475
| 43>   H                    : 10.347194            3.744155             0.637486
| 44>   H                    : 8.302712             3.696454             -0.625597
| 45>   H                    : 9.605838             2.458936             -1.185200
| 46>   H                    : 8.323493             1.991709             -0.228460
| 47> *
| 48>
| 49> #Run DFT-D3 single point of the particle with dimer basis set
| 50> $new_job
| 51> %base "18-39_DFT_B"
| 52> ! wB97X-D3 def2-TZVP TIGHTSCF CHELPG PMODEL
| 53>
| 54> %scf
| 55> MaxIter 1000
| 56> end
| 57>
| 58> * xyz 0 1
| 59>   C                    : 5.188788             2.614549             -0.430988
| 60>   O                    : 4.272714             3.629414             -0.212891
| 61>   H                    : 4.735754             4.461235             -0.188900
| 62>   H                    : 5.899015             2.492255             0.391204
| 63>   H                    : 4.718363             1.670627             -0.695147
| 64>   H                    : 5.822392             2.953750             -1.309417
| 65>   C                      8.957297             2.814425             -0.415852
| 66>   O                      9.757389             2.980019             0.729475
| 67>   H                      10.347194            3.744155             0.637486
| 68>   H                      8.302712             3.696454             -0.625597
| 69>   H                      9.605838             2.458936             -1.185200
| 70>   H                      8.323493             1.991709             -0.228460
| 71> *
| 72>
| 73>                          ****END OF INPUT****
 Total Charge           Charge          ....    0
 Multiplicity           Mult            ....    1
 Number of Electrons    NEL             ....   36
Dispersion correction           -0.001560510
FINAL SINGLE POINT ENERGY      -231.465830044371
Dispersion correction           -0.000220553
FINAL SINGLE POINT ENERGY      -115.733277758639

CARTESIAN COORDINATES (ANGSTROEM)
---------------------------------
  C      5.188788    2.614549   -0.430988
  O      4.272714    3.629414   -0.212891
  H      4.735754    4.461235   -0.188900
  H      5.899015    2.492255    0.391204
  H      4.718363    1.670627   -0.695147
  H      5.822392    2.953750   -1.309417
  C      8.957297    2.814425   -0.415852
  O      9.757389    2.980019    0.729475
  H     10.347194    3.744155    0.637486
  H      8.302712    3.696454   -0.625597
  H      9.605838    2.458936   -1.185200
  H      8.323493    1.991709   -0.228460

 Multiplicity           Mult            ....    1
 Number of Electrons    NEL             ....   18
 Basis Dimension        Dim             ....  172

ORBITAL ENERGIES
----------------

  NO   OCC          E(Eh)            E(eV)
   0   2.0000     -19.225696      -523.1578
   1   2.0000     -10.306544      -280.4553
   2   2.0000      -1.132570       -30.8188
   3   2.0000      -0.798744       -21.7349
   4   2.0000      -0.602953       -16.4072
   5   2.0000      -0.554349       -15.0846
   6   2.0000      -0.528905       -14.3922
   7   2.0000      -0.423397       -11.5212
   8   2.0000      -0.372895       -10.1470
   9   0.0000       0.086154         2.3444
  10   0.0000       0.118418         3.2223
  11   0.0000       0.156322         4.2537
  12   0.0000       0.164358         4.4724
  13   0.0000       0.187669         5.1067

MULLIKEN ATOMIC CHARGES
-----------------------
   0 C :   -0.004745
   1 O :    0.000052
   2 H :   -0.000027
   3 H :    0.002719
   4 H :    0.000039
   5 H :   -0.000012
   6 C :   -0.155332
   7 O :   -0.486977
   8 H :    0.314780
   9 H :    0.100492
  10 H :    0.107425
  11 H :    0.121586
Sum of atomic charges:    0.0000000

LOEWDIN ATOMIC CHARGES
----------------------
   0 C :   -0.005205
   1 O :   -0.000016
   2 H :   -0.000068
   3 H :   -0.002496
   4 H :   -0.000049
   5 H :   -0.002379
   6 C :   -0.382038
   7 O :   -0.079942
   8 H :    0.171461
   9 H :    0.103544
  10 H :    0.093579
  11 H :    0.103609

  Mayer bond orders larger than 0.1
B(  6-C ,  7-O ) :   0.9957 B(  6-C ,  9-H ) :   0.9738 B(  6-C , 10-H ) :   0.9800
B(  6-C , 11-H ) :   0.9726 B(  7-O ,  8-H ) :   0.8965

Dispersion correction           -0.000234967
FINAL SINGLE POINT ENERGY      -115.732059991726

DIPOLE MOMENT
-------------
                                X             Y             Z
Electronic contribution:      0.92736       0.17393       1.41308
Nuclear contribution   :     -0.87849       0.21024      -1.92315
                        -----------------------------------------
Total Dipole Moment    :      0.04888       0.38417      -0.51007
                        -----------------------------------------
Magnitude (a.u.)       :      0.64043
Magnitude (Debye)      :      1.62783

Rotational constants in cm-1:     4.333647     0.838033     0.820196
Rotational constants in MHz : 129919.478831 25123.585055 24588.853567

                             ****ORCA TERMINATED NORMALLY****
TOTAL RUN TIME: 0 days 0 hours 0 minutes 59 seconds 560 msec
