                         Program Version 4.1.2  - RELEASE  -
|  1> #Run DFT-D3 single point of the dimer
|  2> ! wB97X-D3 def2-TZVP TIGHTSCF CHELPG PMODEL PAL8
|  3>
|  4> %base "21-16_DFT_AB"
|  5>
|  6> %scf
|  7> MaxIter 1000
|  8> end
|  9>
| 10> * xyz 0 1
| 11>   C                      7.010154             -0.039045            -9.433605
| 12>   O                      8.270154             0.587972             -9.839625
| 13>   H                      8.487820             0.297724             -10.722834
| 14>   H                      6.245528             0.058010             -10.219982
| 15>   H                      7.161661             -1.110750            -9.489318
| 16>   H                      6.696794             0.214839             -8.443639
| 17>   C                      9.529779             -3.734456            -7.888648
| 18>   O                      8.537099             -2.944454            -8.420546
| 19>   H                      7.770596             -3.505597            -8.623501
| 20>   H                      9.170968             -4.743425            -7.737205
| 21>   H                      10.429349            -3.879150            -8.555951
| 22>   H                      9.961874             -3.350867            -7.001502
| 23> *
| 24>
| 25> #Run DFT-D3 single point of the molecule with dimer basis set
| 26> $new_job
| 27> %base "21-16_DFT_A"
| 28> ! wB97X-D3 def2-TZVP TIGHTSCF CHELPG PMODEL
| 29>
| 30> %scf
| 31> MaxIter 1000
| 32> end
| 33>
| 34> * xyz 0 1
| 35>   C                      7.010154             -0.039045            -9.433605
| 36>   O                      8.270154             0.587972             -9.839625
| 37>   H                      8.487820             0.297724             -10.722834
| 38>   H                      6.245528             0.058010             -10.219982
| 39>   H                      7.161661             -1.110750            -9.489318
| 40>   H                      6.696794             0.214839             -8.443639
| 41>   C                    : 9.529779             -3.734456            -7.888648
| 42>   O                    : 8.537099             -2.944454            -8.420546
| 43>   H                    : 7.770596             -3.505597            -8.623501
| 44>   H                    : 9.170968             -4.743425            -7.737205
| 45>   H                    : 10.429349            -3.879150            -8.555951
| 46>   H                    : 9.961874             -3.350867            -7.001502
| 47> *
| 48>
| 49> #Run DFT-D3 single point of the particle with dimer basis set
| 50> $new_job
| 51> %base "21-16_DFT_B"
| 52> ! wB97X-D3 def2-TZVP TIGHTSCF CHELPG PMODEL
| 53>
| 54> %scf
| 55> MaxIter 1000
| 56> end
| 57>
| 58> * xyz 0 1
| 59>   C                    : 7.010154             -0.039045            -9.433605
| 60>   O                    : 8.270154             0.587972             -9.839625
| 61>   H                    : 8.487820             0.297724             -10.722834
| 62>   H                    : 6.245528             0.058010             -10.219982
| 63>   H                    : 7.161661             -1.110750            -9.489318
| 64>   H                    : 6.696794             0.214839             -8.443639
| 65>   C                      9.529779             -3.734456            -7.888648
| 66>   O                      8.537099             -2.944454            -8.420546
| 67>   H                      7.770596             -3.505597            -8.623501
| 68>   H                      9.170968             -4.743425            -7.737205
| 69>   H                      10.429349            -3.879150            -8.555951
| 70>   H                      9.961874             -3.350867            -7.001502
| 71> *
| 72>
| 73>                          ****END OF INPUT****
 Total Charge           Charge          ....    0
 Multiplicity           Mult            ....    1
 Number of Electrons    NEL             ....   36
Dispersion correction           -0.001383917
FINAL SINGLE POINT ENERGY      -231.460710965186
Dispersion correction           -0.000245159
FINAL SINGLE POINT ENERGY      -115.729461468475

CARTESIAN COORDINATES (ANGSTROEM)
---------------------------------
  C      7.010154   -0.039045   -9.433605
  O      8.270154    0.587972   -9.839625
  H      8.487820    0.297724  -10.722834
  H      6.245528    0.058010  -10.219982
  H      7.161661   -1.110750   -9.489318
  H      6.696794    0.214839   -8.443639
  C      9.529779   -3.734456   -7.888648
  O      8.537099   -2.944454   -8.420546
  H      7.770596   -3.505597   -8.623501
  H      9.170968   -4.743425   -7.737205
  H     10.429349   -3.879150   -8.555951
  H      9.961874   -3.350867   -7.001502

 Multiplicity           Mult            ....    1
 Number of Electrons    NEL             ....   18
 Basis Dimension        Dim             ....  172

ORBITAL ENERGIES
----------------

  NO   OCC          E(Eh)            E(eV)
   0   2.0000     -19.233691      -523.3753
   1   2.0000     -10.308794      -280.5165
   2   2.0000      -1.147969       -31.2378
   3   2.0000      -0.795968       -21.6594
   4   2.0000      -0.622377       -16.9357
   5   2.0000      -0.545891       -14.8544
   6   2.0000      -0.532347       -14.4859
   7   2.0000      -0.432078       -11.7574
   8   2.0000      -0.369734       -10.0610
   9   0.0000       0.096330         2.6213
  10   0.0000       0.118555         3.2261
  11   0.0000       0.153773         4.1844
  12   0.0000       0.177889         4.8406
  13   0.0000       0.198667         5.4060

MULLIKEN ATOMIC CHARGES
-----------------------
   0 C :    0.005569
   1 O :   -0.000580
   2 H :   -0.000392
   3 H :   -0.000417
   4 H :   -0.011549
   5 H :   -0.000448
   6 C :   -0.154548
   7 O :   -0.457330
   8 H :    0.323949
   9 H :    0.096997
  10 H :    0.089427
  11 H :    0.109321
Sum of atomic charges:   -0.0000000

LOEWDIN ATOMIC CHARGES
----------------------
   0 C :   -0.006864
   1 O :   -0.000164
   2 H :   -0.000178
   3 H :   -0.000048
   4 H :   -0.009568
   5 H :   -0.000356
   6 C :   -0.414834
   7 O :   -0.039864
   8 H :    0.184393
   9 H :    0.094270
  10 H :    0.100578
  11 H :    0.092634

  Mayer bond orders larger than 0.1
B(  6-C ,  7-O ) :   1.0205 B(  6-C ,  9-H ) :   0.9886 B(  6-C , 10-H ) :   0.9740
B(  6-C , 11-H ) :   0.9778 B(  7-O ,  8-H ) :   0.8916

Dispersion correction           -0.000240878
FINAL SINGLE POINT ENERGY      -115.731445409323

DIPOLE MOMENT
-------------
                                X             Y             Z
Electronic contribution:     -1.35056       1.23817      -0.60516
Nuclear contribution   :      1.20819      -1.91805       0.69472
                        -----------------------------------------
Total Dipole Moment    :     -0.14237      -0.67987       0.08956
                        -----------------------------------------
Magnitude (a.u.)       :      0.70037
Magnitude (Debye)      :      1.78019

Rotational constants in cm-1:     4.440281     0.862134     0.825351
Rotational constants in MHz : 133116.271822 25846.120782 24743.405057

                             ****ORCA TERMINATED NORMALLY****
TOTAL RUN TIME: 0 days 0 hours 1 minutes 5 seconds 616 msec
