                         Program Version 4.1.2  - RELEASE  -
|  1> #Run DFT-D3 single point of the dimer
|  2> ! wB97X-D3 def2-TZVP TIGHTSCF CHELPG PMODEL PAL8
|  3>
|  4> %base "7-188_DFT_AB"
|  5>
|  6> %scf
|  7> MaxIter 1000
|  8> end
|  9>
| 10> * xyz 0 1
| 11>   C                      4.184750             -3.207823            8.563290
| 12>   O                      4.112206             -1.905528            7.976050
| 13>   H                      4.339937             -1.929476            7.006148
| 14>   H                      5.218819             -3.450477            8.968318
| 15>   H                      3.369544             -3.401856            9.220381
| 16>   H                      3.951385             -3.901322            7.759760
| 17>   C                      1.133568             -0.516884            6.785558
| 18>   O                      1.915771             0.504868             7.331157
| 19>   H                      2.600641             0.127832             7.936668
| 20>   H                      0.461457             -0.935861            7.569601
| 21>   H                      0.563237             -0.144390            5.969614
| 22>   H                      1.757236             -1.298917            6.418166
| 23> *
| 24>
| 25> #Run DFT-D3 single point of the molecule with dimer basis set
| 26> $new_job
| 27> %base "7-188_DFT_A"
| 28> ! wB97X-D3 def2-TZVP TIGHTSCF CHELPG PMODEL
| 29>
| 30> %scf
| 31> MaxIter 1000
| 32> end
| 33>
| 34> * xyz 0 1
| 35>   C                      4.184750             -3.207823            8.563290
| 36>   O                      4.112206             -1.905528            7.976050
| 37>   H                      4.339937             -1.929476            7.006148
| 38>   H                      5.218819             -3.450477            8.968318
| 39>   H                      3.369544             -3.401856            9.220381
| 40>   H                      3.951385             -3.901322            7.759760
| 41>   C                    : 1.133568             -0.516884            6.785558
| 42>   O                    : 1.915771             0.504868             7.331157
| 43>   H                    : 2.600641             0.127832             7.936668
| 44>   H                    : 0.461457             -0.935861            7.569601
| 45>   H                    : 0.563237             -0.144390            5.969614
| 46>   H                    : 1.757236             -1.298917            6.418166
| 47> *
| 48>
| 49> #Run DFT-D3 single point of the particle with dimer basis set
| 50> $new_job
| 51> %base "7-188_DFT_B"
| 52> ! wB97X-D3 def2-TZVP TIGHTSCF CHELPG PMODEL
| 53>
| 54> %scf
| 55> MaxIter 1000
| 56> end
| 57>
| 58> * xyz 0 1
| 59>   C                    : 4.184750             -3.207823            8.563290
| 60>   O                    : 4.112206             -1.905528            7.976050
| 61>   H                    : 4.339937             -1.929476            7.006148
| 62>   H                    : 5.218819             -3.450477            8.968318
| 63>   H                    : 3.369544             -3.401856            9.220381
| 64>   H                    : 3.951385             -3.901322            7.759760
| 65>   C                      1.133568             -0.516884            6.785558
| 66>   O                      1.915771             0.504868             7.331157
| 67>   H                      2.600641             0.127832             7.936668
| 68>   H                      0.461457             -0.935861            7.569601
| 69>   H                      0.563237             -0.144390            5.969614
| 70>   H                      1.757236             -1.298917            6.418166
| 71> *
| 72>
| 73>                          ****END OF INPUT****
 Total Charge           Charge          ....    0
 Multiplicity           Mult            ....    1
 Number of Electrons    NEL             ....   36
Dispersion correction           -0.001820278
FINAL SINGLE POINT ENERGY      -231.469186312530
Dispersion correction           -0.000255390
FINAL SINGLE POINT ENERGY      -115.728618855382

CARTESIAN COORDINATES (ANGSTROEM)
---------------------------------
  C      4.184750   -3.207823    8.563290
  O      4.112206   -1.905528    7.976050
  H      4.339937   -1.929476    7.006148
  H      5.218819   -3.450477    8.968318
  H      3.369544   -3.401856    9.220381
  H      3.951385   -3.901322    7.759760
  C      1.133568   -0.516884    6.785558
  O      1.915771    0.504868    7.331157
  H      2.600641    0.127832    7.936668
  H      0.461457   -0.935861    7.569601
  H      0.563237   -0.144390    5.969614
  H      1.757236   -1.298917    6.418166

 Multiplicity           Mult            ....    1
 Number of Electrons    NEL             ....   18
 Basis Dimension        Dim             ....  172

ORBITAL ENERGIES
----------------

  NO   OCC          E(Eh)            E(eV)
   0   2.0000     -19.228958      -523.2465
   1   2.0000     -10.306651      -280.4582
   2   2.0000      -1.133463       -30.8431
   3   2.0000      -0.795222       -21.6391
   4   2.0000      -0.610124       -16.6023
   5   2.0000      -0.543601       -14.7921
   6   2.0000      -0.533837       -14.5264
   7   2.0000      -0.429705       -11.6929
   8   2.0000      -0.369538       -10.0556
   9   0.0000       0.070241         1.9114
  10   0.0000       0.123745         3.3673
  11   0.0000       0.153295         4.1714
  12   0.0000       0.162345         4.4176
  13   0.0000       0.192336         5.2337

MULLIKEN ATOMIC CHARGES
-----------------------
   0 C :    0.000185
   1 O :   -0.001984
   2 H :   -0.000187
   3 H :    0.000016
   4 H :   -0.000082
   5 H :   -0.000218
   6 C :   -0.157294
   7 O :   -0.481427
   8 H :    0.317376
   9 H :    0.096137
  10 H :    0.123681
  11 H :    0.103798
Sum of atomic charges:   -0.0000000

LOEWDIN ATOMIC CHARGES
----------------------
   0 C :   -0.000705
   1 O :   -0.005254
   2 H :   -0.001472
   3 H :   -0.000007
   4 H :   -0.000038
   5 H :   -0.000081
   6 C :   -0.389754
   7 O :   -0.077753
   8 H :    0.185203
   9 H :    0.098701
  10 H :    0.102245
  11 H :    0.088916

  Mayer bond orders larger than 0.1
B(  6-C ,  7-O ) :   0.9968 B(  6-C ,  9-H ) :   0.9807 B(  6-C , 10-H ) :   0.9718
B(  6-C , 11-H ) :   0.9795 B(  7-O ,  8-H ) :   0.8962

Dispersion correction           -0.000226876
FINAL SINGLE POINT ENERGY      -115.734624775068

DIPOLE MOMENT
-------------
                                X             Y             Z
Electronic contribution:      0.90081       1.41966       0.54049
Nuclear contribution   :     -0.76457      -2.05762      -0.40206
                        -----------------------------------------
Total Dipole Moment    :      0.13624      -0.63796       0.13843
                        -----------------------------------------
Magnitude (a.u.)       :      0.66687
Magnitude (Debye)      :      1.69506

Rotational constants in cm-1:     4.314747     0.848337     0.819511
Rotational constants in MHz : 129352.850836 25432.504256 24568.331706

                             ****ORCA TERMINATED NORMALLY****
TOTAL RUN TIME: 0 days 0 hours 1 minutes 11 seconds 738 msec
