                         Program Version 4.1.2  - RELEASE  -
|  1> #Run DFT-D3 single point of the dimer
|  2> ! wB97X-D3 def2-TZVP TIGHTSCF CHELPG PMODEL PAL8
|  3>
|  4> %base "6-211_DFT_AB"
|  5>
|  6> %scf
|  7> MaxIter 1000
|  8> end
|  9>
| 10> * xyz 0 1
| 11>   C                      1.357554             3.752919             0.927399
| 12>   O                      2.636666             3.112207             1.170774
| 13>   H                      3.170213             3.525869             0.504691
| 14>   H                      1.409759             4.871002             1.051048
| 15>   H                      0.903366             3.512577             -0.023999
| 16>   H                      0.608316             3.462401             1.670895
| 17>   C                      3.690297             0.549827             2.921323
| 18>   O                      2.607705             0.302662             2.086672
| 19>   H                      2.541345             1.107319             1.602346
| 20>   H                      4.694533             0.374116             2.463775
| 21>   H                      3.695042             1.642360             3.273149
| 22>   H                      3.590307             -0.085466            3.793748
| 23> *
| 24>
| 25> #Run DFT-D3 single point of the molecule with dimer basis set
| 26> $new_job
| 27> %base "6-211_DFT_A"
| 28> ! wB97X-D3 def2-TZVP TIGHTSCF CHELPG PMODEL
| 29>
| 30> %scf
| 31> MaxIter 1000
| 32> end
| 33>
| 34> * xyz 0 1
| 35>   C                      1.357554             3.752919             0.927399
| 36>   O                      2.636666             3.112207             1.170774
| 37>   H                      3.170213             3.525869             0.504691
| 38>   H                      1.409759             4.871002             1.051048
| 39>   H                      0.903366             3.512577             -0.023999
| 40>   H                      0.608316             3.462401             1.670895
| 41>   C                    : 3.690297             0.549827             2.921323
| 42>   O                    : 2.607705             0.302662             2.086672
| 43>   H                    : 2.541345             1.107319             1.602346
| 44>   H                    : 4.694533             0.374116             2.463775
| 45>   H                    : 3.695042             1.642360             3.273149
| 46>   H                    : 3.590307             -0.085466            3.793748
| 47> *
| 48>
| 49> #Run DFT-D3 single point of the particle with dimer basis set
| 50> $new_job
| 51> %base "6-211_DFT_B"
| 52> ! wB97X-D3 def2-TZVP TIGHTSCF CHELPG PMODEL
| 53>
| 54> %scf
| 55> MaxIter 1000
| 56> end
| 57>
| 58> * xyz 0 1
| 59>   C                    : 1.357554             3.752919             0.927399
| 60>   O                    : 2.636666             3.112207             1.170774
| 61>   H                    : 3.170213             3.525869             0.504691
| 62>   H                    : 1.409759             4.871002             1.051048
| 63>   H                    : 0.903366             3.512577             -0.023999
| 64>   H                    : 0.608316             3.462401             1.670895
| 65>   C                      3.690297             0.549827             2.921323
| 66>   O                      2.607705             0.302662             2.086672
| 67>   H                      2.541345             1.107319             1.602346
| 68>   H                      4.694533             0.374116             2.463775
| 69>   H                      3.695042             1.642360             3.273149
| 70>   H                      3.590307             -0.085466            3.793748
| 71> *
| 72>
| 73>                          ****END OF INPUT****
 Total Charge           Charge          ....    0
 Multiplicity           Mult            ....    1
 Number of Electrons    NEL             ....   36
Dispersion correction           -0.001842544
FINAL SINGLE POINT ENERGY      -231.475141567888
Dispersion correction           -0.000255191
FINAL SINGLE POINT ENERGY      -115.733246005748

CARTESIAN COORDINATES (ANGSTROEM)
---------------------------------
  C      1.357554    3.752919    0.927399
  O      2.636666    3.112207    1.170774
  H      3.170213    3.525869    0.504691
  H      1.409759    4.871002    1.051048
  H      0.903366    3.512577   -0.023999
  H      0.608316    3.462401    1.670895
  C      3.690297    0.549827    2.921323
  O      2.607705    0.302662    2.086672
  H      2.541345    1.107319    1.602346
  H      4.694533    0.374116    2.463775
  H      3.695042    1.642360    3.273149
  H      3.590307   -0.085466    3.793748

 Multiplicity           Mult            ....    1
 Number of Electrons    NEL             ....   18
 Basis Dimension        Dim             ....  172

ORBITAL ENERGIES
----------------

  NO   OCC          E(Eh)            E(eV)
   0   2.0000     -19.233393      -523.3672
   1   2.0000     -10.318598      -280.7833
   2   2.0000      -1.154386       -31.4125
   3   2.0000      -0.789399       -21.4806
   4   2.0000      -0.618067       -16.8184
   5   2.0000      -0.539985       -14.6937
   6   2.0000      -0.531561       -14.4645
   7   2.0000      -0.439138       -11.9496
   8   2.0000      -0.374142       -10.1809
   9   0.0000       0.067246         1.8299
  10   0.0000       0.129970         3.5367
  11   0.0000       0.156077         4.2471
  12   0.0000       0.163990         4.4624
  13   0.0000       0.182848         4.9755

MULLIKEN ATOMIC CHARGES
-----------------------
   0 C :   -0.001433
   1 O :   -0.003315
   2 H :   -0.000149
   3 H :   -0.000023
   4 H :    0.000056
   5 H :   -0.000570
   6 C :   -0.172022
   7 O :   -0.446657
   8 H :    0.312336
   9 H :    0.098168
  10 H :    0.093899
  11 H :    0.119710
Sum of atomic charges:    0.0000000

LOEWDIN ATOMIC CHARGES
----------------------
   0 C :   -0.003094
   1 O :   -0.014734
   2 H :   -0.000769
   3 H :   -0.000050
   4 H :   -0.000083
   5 H :   -0.000448
   6 C :   -0.411796
   7 O :   -0.037651
   8 H :    0.166427
   9 H :    0.096065
  10 H :    0.102531
  11 H :    0.103602

  Mayer bond orders larger than 0.1
B(  6-C ,  7-O ) :   1.0004 B(  6-C ,  9-H ) :   0.9683 B(  6-C , 10-H ) :   0.9810
B(  6-C , 11-H ) :   0.9760 B(  7-O ,  8-H ) :   0.9156

Dispersion correction           -0.000230090
FINAL SINGLE POINT ENERGY      -115.733164372801

DIPOLE MOMENT
-------------
                                X             Y             Z
Electronic contribution:     -1.48925      -0.56794      -1.09311
Nuclear contribution   :      1.82383       1.14901       1.10509
                        -----------------------------------------
Total Dipole Moment    :      0.33458       0.58107       0.01199
                        -----------------------------------------
Magnitude (a.u.)       :      0.67063
Magnitude (Debye)      :      1.70459

Rotational constants in cm-1:     4.158209     0.858206     0.824138
Rotational constants in MHz : 124659.976847 25728.371183 24707.048134

                             ****ORCA TERMINATED NORMALLY****
TOTAL RUN TIME: 0 days 0 hours 1 minutes 6 seconds 727 msec
