                         Program Version 4.1.2  - RELEASE  -
|  1> #Run DFT-D3 single point of the dimer
|  2> ! wB97X-D3 def2-TZVP TIGHTSCF  CHELPG PAL8
|  3>
|  4> %base "31_charges"
|  5>
|  6> %scf
|  7> MaxIter 1000
|  8> end
|  9> %output
| 10>   Print[ P_Mayer ] 1
| 11>   Print[ P_NatPop ] 1
| 12>   Print[ P_Hirshfeld ] 1
| 13>   Print[ P_Mulliken ] 1
| 14>   Print [ P_Loewdin ] 1
| 15> end
| 16>
| 17> * xyz 0 1
| 18>   C                      -9.791303            -10.099411           9.310983
| 19>   O                      -9.002937            -10.753431           10.296551
| 20>   H                      -9.538551            -10.874816           11.117157
| 21>   H                      -9.195692            -10.205011           8.417178
| 22>   H                      -10.803810           -10.464244           9.140756
| 23>   H                      -9.751564            -9.028167            9.612404
| 24> *
| 25>
| 26>                          ****END OF INPUT****

CARTESIAN COORDINATES (ANGSTROEM)
---------------------------------
  C     -9.791303  -10.099411    9.310983
  O     -9.002937  -10.753431   10.296551
  H     -9.538551  -10.874816   11.117157
  H     -9.195692  -10.205011    8.417178
  H    -10.803810  -10.464244    9.140756
  H     -9.751564   -9.028167    9.612404

 Total Charge           Charge          ....    0
 Multiplicity           Mult            ....    1
 Number of Electrons    NEL             ....   18
 Basis Dimension        Dim             ....   86

ORBITAL ENERGIES
----------------

  NO   OCC          E(Eh)            E(eV)
   0   2.0000     -19.228650      -523.2382
   1   2.0000     -10.312027      -280.6045
   2   2.0000      -1.126824       -30.6625
   3   2.0000      -0.792263       -21.5586
   4   2.0000      -0.605392       -16.4736
   5   2.0000      -0.542746       -14.7689
   6   2.0000      -0.519851       -14.1459
   7   2.0000      -0.434194       -11.8150
   8   2.0000      -0.369106       -10.0439
   9   0.0000       0.113415         3.0862
  10   0.0000       0.156906         4.2696
  11   0.0000       0.195613         5.3229
  12   0.0000       0.204715         5.5706
  13   0.0000       0.226360         6.1596

MULLIKEN ATOMIC CHARGES
-----------------------
   0 C :   -0.159819
   1 O :   -0.482634
   2 H :    0.312064
   3 H :    0.120815
   4 H :    0.105764
   5 H :    0.103810
Sum of atomic charges:    0.0000000

LOEWDIN ATOMIC CHARGES
----------------------
   0 C :   -0.382304
   1 O :   -0.099776
   2 H :    0.179827
   3 H :    0.107462
   4 H :    0.093094
   5 H :    0.101697

  Mayer bond orders larger than 0.1
B(  0-C ,  1-O ) :   0.9920 B(  0-C ,  3-H ) :   0.9753 B(  0-C ,  4-H ) :   0.9640
B(  0-C ,  5-H ) :   0.9854 B(  1-O ,  2-H ) :   0.8975

Dispersion correction           -0.000243800
FINAL SINGLE POINT ENERGY      -115.732293083826

DIPOLE MOMENT
-------------
                                X             Y             Z
Electronic contribution:      0.93024      -0.90563       1.09186
Nuclear contribution   :     -1.57335       1.07754      -0.98407
                        -----------------------------------------
Total Dipole Moment    :     -0.64312       0.17191       0.10779
                        -----------------------------------------
Magnitude (a.u.)       :      0.67437
Magnitude (Debye)      :      1.71410

Rotational constants in cm-1:     4.182851     0.829458     0.802653
Rotational constants in MHz : 125398.704955 24866.539161 24062.945640

                             ****ORCA TERMINATED NORMALLY****
TOTAL RUN TIME: 0 days 0 hours 0 minutes 40 seconds 831 msec
