                         Program Version 4.1.2  - RELEASE  -
|  1> #Run DFT-D3 single point of the dimer
|  2> ! wB97X-D3 def2-TZVP TIGHTSCF CHELPG PMODEL PAL8
|  3>
|  4> %base "12-37_DFT_AB"
|  5>
|  6> %scf
|  7> MaxIter 1000
|  8> end
|  9>
| 10> * xyz 0 1
| 11>   C                      -8.068520            9.350120             1.189583
| 12>   O                      -8.752625            10.376869            1.873308
| 13>   H                      -8.135761            11.181691            1.909176
| 14>   H                      -6.977706            9.408543             1.361703
| 15>   H                      -8.315950            8.386054             1.585649
| 16>   H                      -8.351789            9.399995             0.160666
| 17>   C                      -9.041128            7.108343             4.678222
| 18>   O                      -8.063156            7.959100             5.297418
| 19>   H                      -8.602774            8.629575             5.673982
| 20>   H                      -8.511217            6.497852             4.034014
| 21>   H                      -9.565376            6.519665             5.399782
| 22>   H                      -9.755183            7.740047             4.094476
| 23> *
| 24>
| 25> #Run DFT-D3 single point of the molecule with dimer basis set
| 26> $new_job
| 27> %base "12-37_DFT_A"
| 28> ! wB97X-D3 def2-TZVP TIGHTSCF CHELPG PMODEL
| 29>
| 30> %scf
| 31> MaxIter 1000
| 32> end
| 33>
| 34> * xyz 0 1
| 35>   C                      -8.068520            9.350120             1.189583
| 36>   O                      -8.752625            10.376869            1.873308
| 37>   H                      -8.135761            11.181691            1.909176
| 38>   H                      -6.977706            9.408543             1.361703
| 39>   H                      -8.315950            8.386054             1.585649
| 40>   H                      -8.351789            9.399995             0.160666
| 41>   C                    : -9.041128            7.108343             4.678222
| 42>   O                    : -8.063156            7.959100             5.297418
| 43>   H                    : -8.602774            8.629575             5.673982
| 44>   H                    : -8.511217            6.497852             4.034014
| 45>   H                    : -9.565376            6.519665             5.399782
| 46>   H                    : -9.755183            7.740047             4.094476
| 47> *
| 48>
| 49> #Run DFT-D3 single point of the particle with dimer basis set
| 50> $new_job
| 51> %base "12-37_DFT_B"
| 52> ! wB97X-D3 def2-TZVP TIGHTSCF CHELPG PMODEL
| 53>
| 54> %scf
| 55> MaxIter 1000
| 56> end
| 57>
| 58> * xyz 0 1
| 59>   C                    : -8.068520            9.350120             1.189583
| 60>   O                    : -8.752625            10.376869            1.873308
| 61>   H                    : -8.135761            11.181691            1.909176
| 62>   H                    : -6.977706            9.408543             1.361703
| 63>   H                    : -8.315950            8.386054             1.585649
| 64>   H                    : -8.351789            9.399995             0.160666
| 65>   C                      -9.041128            7.108343             4.678222
| 66>   O                      -8.063156            7.959100             5.297418
| 67>   H                      -8.602774            8.629575             5.673982
| 68>   H                      -8.511217            6.497852             4.034014
| 69>   H                      -9.565376            6.519665             5.399782
| 70>   H                      -9.755183            7.740047             4.094476
| 71> *
| 72>
| 73>                          ****END OF INPUT****
 Total Charge           Charge          ....    0
 Multiplicity           Mult            ....    1
 Number of Electrons    NEL             ....   36
Dispersion correction           -0.001372692
FINAL SINGLE POINT ENERGY      -231.465578128538
Dispersion correction           -0.000235555
FINAL SINGLE POINT ENERGY      -115.731269026482

CARTESIAN COORDINATES (ANGSTROEM)
---------------------------------
  C     -8.068520    9.350120    1.189583
  O     -8.752625   10.376869    1.873308
  H     -8.135761   11.181691    1.909176
  H     -6.977706    9.408543    1.361703
  H     -8.315950    8.386054    1.585649
  H     -8.351789    9.399995    0.160666
  C     -9.041128    7.108343    4.678222
  O     -8.063156    7.959100    5.297418
  H     -8.602774    8.629575    5.673982
  H     -8.511217    6.497852    4.034014
  H     -9.565376    6.519665    5.399782
  H     -9.755183    7.740047    4.094476

 Multiplicity           Mult            ....    1
 Number of Electrons    NEL             ....   18
 Basis Dimension        Dim             ....  172

ORBITAL ENERGIES
----------------

  NO   OCC          E(Eh)            E(eV)
   0   2.0000     -19.227158      -523.1976
   1   2.0000     -10.308432      -280.5067
   2   2.0000      -1.136835       -30.9349
   3   2.0000      -0.800152       -21.7732
   4   2.0000      -0.607651       -16.5350
   5   2.0000      -0.545749       -14.8506
   6   2.0000      -0.526031       -14.3140
   7   2.0000      -0.445157       -12.1133
   8   2.0000      -0.375495       -10.2178
   9   0.0000       0.086445         2.3523
  10   0.0000       0.121923         3.3177
  11   0.0000       0.152955         4.1621
  12   0.0000       0.170065         4.6277
  13   0.0000       0.191507         5.2112

MULLIKEN ATOMIC CHARGES
-----------------------
   0 C :   -0.000651
   1 O :   -0.000022
   2 H :   -0.000021
   3 H :    0.000128
   4 H :   -0.000496
   5 H :    0.000030
   6 C :   -0.164698
   7 O :   -0.470916
   8 H :    0.307069
   9 H :    0.120921
  10 H :    0.109797
  11 H :    0.098860
Sum of atomic charges:   -0.0000000

LOEWDIN ATOMIC CHARGES
----------------------
   0 C :   -0.001203
   1 O :   -0.000123
   2 H :   -0.000030
   3 H :   -0.000068
   4 H :   -0.000887
   5 H :   -0.000030
   6 C :   -0.356057
   7 O :   -0.083117
   8 H :    0.154281
   9 H :    0.094395
  10 H :    0.091147
  11 H :    0.101693

  Mayer bond orders larger than 0.1
B(  6-C ,  7-O ) :   0.9909 B(  6-C ,  9-H ) :   0.9793 B(  6-C , 10-H ) :   0.9708
B(  6-C , 11-H ) :   0.9850 B(  7-O ,  8-H ) :   0.9113

Dispersion correction           -0.000213665
FINAL SINGLE POINT ENERGY      -115.732560682012

DIPOLE MOMENT
-------------
                                X             Y             Z
Electronic contribution:      1.32609       0.86733       0.73587
Nuclear contribution   :     -2.04660      -0.80607      -0.75454
                        -----------------------------------------
Total Dipole Moment    :     -0.72050       0.06126      -0.01867
                        -----------------------------------------
Magnitude (a.u.)       :      0.72335
Magnitude (Debye)      :      1.83860

Rotational constants in cm-1:     4.308918     0.828993     0.800769
Rotational constants in MHz : 129178.101323 24852.572048 24006.442596

                             ****ORCA TERMINATED NORMALLY****
TOTAL RUN TIME: 0 days 0 hours 1 minutes 14 seconds 285 msec
