                         Program Version 4.1.2  - RELEASE  -
|  1> #Run DFT-D3 single point of the dimer
|  2> ! wB97X-D3 def2-TZVP TIGHTSCF CHELPG PMODEL PAL8
|  3>
|  4> %base "19-73_DFT_AB"
|  5>
|  6> %scf
|  7> MaxIter 1000
|  8> end
|  9>
| 10> * xyz 0 1
| 11>   C                      -0.575067            -10.156360           7.923037
| 12>   O                      0.034573             -8.867391            8.103202
| 13>   H                      0.063083             -8.534555            7.191090
| 14>   H                      -0.260916            -10.777409           8.756213
| 15>   H                      -1.647497            -10.080484           7.981376
| 16>   H                      -0.388357            -10.646817           7.019382
| 17>   C                      -0.689859            -6.045129            10.141040
| 18>   O                      -1.623886            -6.700733            9.380281
| 19>   H                      -1.112781            -7.355313            8.860090
| 20>   H                      0.213045             -6.562357            10.054029
| 21>   H                      -0.605332            -4.968874            9.947013
| 22>   H                      -0.933497            -6.123105            11.212937
| 23> *
| 24>
| 25> #Run DFT-D3 single point of the molecule with dimer basis set
| 26> $new_job
| 27> %base "19-73_DFT_A"
| 28> ! wB97X-D3 def2-TZVP TIGHTSCF CHELPG PMODEL
| 29>
| 30> %scf
| 31> MaxIter 1000
| 32> end
| 33>
| 34> * xyz 0 1
| 35>   C                      -0.575067            -10.156360           7.923037
| 36>   O                      0.034573             -8.867391            8.103202
| 37>   H                      0.063083             -8.534555            7.191090
| 38>   H                      -0.260916            -10.777409           8.756213
| 39>   H                      -1.647497            -10.080484           7.981376
| 40>   H                      -0.388357            -10.646817           7.019382
| 41>   C                    : -0.689859            -6.045129            10.141040
| 42>   O                    : -1.623886            -6.700733            9.380281
| 43>   H                    : -1.112781            -7.355313            8.860090
| 44>   H                    : 0.213045             -6.562357            10.054029
| 45>   H                    : -0.605332            -4.968874            9.947013
| 46>   H                    : -0.933497            -6.123105            11.212937
| 47> *
| 48>
| 49> #Run DFT-D3 single point of the particle with dimer basis set
| 50> $new_job
| 51> %base "19-73_DFT_B"
| 52> ! wB97X-D3 def2-TZVP TIGHTSCF CHELPG PMODEL
| 53>
| 54> %scf
| 55> MaxIter 1000
| 56> end
| 57>
| 58> * xyz 0 1
| 59>   C                    : -0.575067            -10.156360           7.923037
| 60>   O                    : 0.034573             -8.867391            8.103202
| 61>   H                    : 0.063083             -8.534555            7.191090
| 62>   H                    : -0.260916            -10.777409           8.756213
| 63>   H                    : -1.647497            -10.080484           7.981376
| 64>   H                    : -0.388357            -10.646817           7.019382
| 65>   C                      -0.689859            -6.045129            10.141040
| 66>   O                      -1.623886            -6.700733            9.380281
| 67>   H                      -1.112781            -7.355313            8.860090
| 68>   H                      0.213045             -6.562357            10.054029
| 69>   H                      -0.605332            -4.968874            9.947013
| 70>   H                      -0.933497            -6.123105            11.212937
| 71> *
| 72>
| 73>                          ****END OF INPUT****
 Total Charge           Charge          ....    0
 Multiplicity           Mult            ....    1
 Number of Electrons    NEL             ....   36
Dispersion correction           -0.001678268
FINAL SINGLE POINT ENERGY      -231.471203983230
Dispersion correction           -0.000234221
FINAL SINGLE POINT ENERGY      -115.732660253590

CARTESIAN COORDINATES (ANGSTROEM)
---------------------------------
  C     -0.575067  -10.156360    7.923037
  O      0.034573   -8.867391    8.103202
  H      0.063083   -8.534555    7.191090
  H     -0.260916  -10.777409    8.756213
  H     -1.647497  -10.080484    7.981376
  H     -0.388357  -10.646817    7.019382
  C     -0.689859   -6.045129   10.141040
  O     -1.623886   -6.700733    9.380281
  H     -1.112781   -7.355313    8.860090
  H      0.213045   -6.562357   10.054029
  H     -0.605332   -4.968874    9.947013
  H     -0.933497   -6.123105   11.212937

 Multiplicity           Mult            ....    1
 Number of Electrons    NEL             ....   18
 Basis Dimension        Dim             ....  172

ORBITAL ENERGIES
----------------

  NO   OCC          E(Eh)            E(eV)
   0   2.0000     -19.232154      -523.3335
   1   2.0000     -10.304401      -280.3970
   2   2.0000      -1.149469       -31.2786
   3   2.0000      -0.792871       -21.5751
   4   2.0000      -0.622279       -16.9331
   5   2.0000      -0.546683       -14.8760
   6   2.0000      -0.534996       -14.5580
   7   2.0000      -0.432504       -11.7690
   8   2.0000      -0.369859       -10.0644
   9   0.0000       0.067588         1.8392
  10   0.0000       0.127817         3.4781
  11   0.0000       0.155657         4.2357
  12   0.0000       0.173814         4.7297
  13   0.0000       0.188239         5.1222

MULLIKEN ATOMIC CHARGES
-----------------------
   0 C :   -0.003336
   1 O :   -0.001120
   2 H :   -0.000788
   3 H :    0.000360
   4 H :    0.000081
   5 H :   -0.000007
   6 C :   -0.161909
   7 O :   -0.452798
   8 H :    0.315907
   9 H :    0.101446
  10 H :    0.102885
  11 H :    0.099279
Sum of atomic charges:   -0.0000000

LOEWDIN ATOMIC CHARGES
----------------------
   0 C :   -0.003191
   1 O :   -0.014273
   2 H :   -0.002190
   3 H :   -0.000054
   4 H :   -0.000507
   5 H :   -0.000069
   6 C :   -0.416429
   7 O :   -0.044178
   8 H :    0.194526
   9 H :    0.086844
  10 H :    0.098459
  11 H :    0.101063

  Mayer bond orders larger than 0.1
B(  6-C ,  7-O ) :   1.0106 B(  6-C ,  9-H ) :   0.9941 B(  6-C , 10-H ) :   0.9748
B(  6-C , 11-H ) :   0.9759 B(  7-O ,  8-H ) :   0.9066

Dispersion correction           -0.000222802
FINAL SINGLE POINT ENERGY      -115.729382747649

DIPOLE MOMENT
-------------
                                X             Y             Z
Electronic contribution:     -1.32226      -0.74125      -1.06300
Nuclear contribution   :      2.00625       0.54400       1.01815
                        -----------------------------------------
Total Dipole Moment    :      0.68398      -0.19725      -0.04485
                        -----------------------------------------
Magnitude (a.u.)       :      0.71327
Magnitude (Debye)      :      1.81298

Rotational constants in cm-1:     4.360288     0.878391     0.844089
Rotational constants in MHz : 130718.138852 26333.502091 25305.163664

                             ****ORCA TERMINATED NORMALLY****
TOTAL RUN TIME: 0 days 0 hours 2 minutes 23 seconds 646 msec
