                         Program Version 4.1.2  - RELEASE  -
|  1> #Run DFT-D3 single point of the dimer
|  2> ! wB97X-D3 def2-TZVP TIGHTSCF CHELPG PMODEL PAL8
|  3>
|  4> %base "22-206_DFT_AB"
|  5>
|  6> %scf
|  7> MaxIter 1000
|  8> end
|  9>
| 10> * xyz 0 1
| 11>   C                      1.036957             3.574297             2.264222
| 12>   O                      0.901714             3.131418             0.918129
| 13>   H                      0.500410             3.835096             0.466656
| 14>   H                      1.735530             4.431400             2.282061
| 15>   H                      0.118558             3.792975             2.761185
| 16>   H                      1.387067             2.884953             2.982155
| 17>   C                      2.296630             -0.274171            1.603037
| 18>   O                      1.996984             0.535547             0.414808
| 19>   H                      1.250259             1.158687             0.614377
| 20>   H                      3.130297             -1.028135            1.464270
| 21>   H                      2.630375             0.364142             2.427170
| 22>   H                      1.420406             -0.880692            1.852502
| 23> *
| 24>
| 25> #Run DFT-D3 single point of the molecule with dimer basis set
| 26> $new_job
| 27> %base "22-206_DFT_A"
| 28> ! wB97X-D3 def2-TZVP TIGHTSCF CHELPG PMODEL
| 29>
| 30> %scf
| 31> MaxIter 1000
| 32> end
| 33>
| 34> * xyz 0 1
| 35>   C                      1.036957             3.574297             2.264222
| 36>   O                      0.901714             3.131418             0.918129
| 37>   H                      0.500410             3.835096             0.466656
| 38>   H                      1.735530             4.431400             2.282061
| 39>   H                      0.118558             3.792975             2.761185
| 40>   H                      1.387067             2.884953             2.982155
| 41>   C                    : 2.296630             -0.274171            1.603037
| 42>   O                    : 1.996984             0.535547             0.414808
| 43>   H                    : 1.250259             1.158687             0.614377
| 44>   H                    : 3.130297             -1.028135            1.464270
| 45>   H                    : 2.630375             0.364142             2.427170
| 46>   H                    : 1.420406             -0.880692            1.852502
| 47> *
| 48>
| 49> #Run DFT-D3 single point of the particle with dimer basis set
| 50> $new_job
| 51> %base "22-206_DFT_B"
| 52> ! wB97X-D3 def2-TZVP TIGHTSCF CHELPG PMODEL
| 53>
| 54> %scf
| 55> MaxIter 1000
| 56> end
| 57>
| 58> * xyz 0 1
| 59>   C                    : 1.036957             3.574297             2.264222
| 60>   O                    : 0.901714             3.131418             0.918129
| 61>   H                    : 0.500410             3.835096             0.466656
| 62>   H                    : 1.735530             4.431400             2.282061
| 63>   H                    : 0.118558             3.792975             2.761185
| 64>   H                    : 1.387067             2.884953             2.982155
| 65>   C                      2.296630             -0.274171            1.603037
| 66>   O                      1.996984             0.535547             0.414808
| 67>   H                      1.250259             1.158687             0.614377
| 68>   H                      3.130297             -1.028135            1.464270
| 69>   H                      2.630375             0.364142             2.427170
| 70>   H                      1.420406             -0.880692            1.852502
| 71> *
| 72>
| 73>                          ****END OF INPUT****
 Total Charge           Charge          ....    0
 Multiplicity           Mult            ....    1
 Number of Electrons    NEL             ....   36
Dispersion correction           -0.001851724
FINAL SINGLE POINT ENERGY      -231.463982483455
Dispersion correction           -0.000239355
FINAL SINGLE POINT ENERGY      -115.727854625053

CARTESIAN COORDINATES (ANGSTROEM)
---------------------------------
  C      1.036957    3.574297    2.264222
  O      0.901714    3.131418    0.918129
  H      0.500410    3.835096    0.466656
  H      1.735530    4.431400    2.282061
  H      0.118558    3.792975    2.761185
  H      1.387067    2.884953    2.982155
  C      2.296630   -0.274171    1.603037
  O      1.996984    0.535547    0.414808
  H      1.250259    1.158687    0.614377
  H      3.130297   -1.028135    1.464270
  H      2.630375    0.364142    2.427170
  H      1.420406   -0.880692    1.852502

 Multiplicity           Mult            ....    1
 Number of Electrons    NEL             ....   18
 Basis Dimension        Dim             ....  172

ORBITAL ENERGIES
----------------

  NO   OCC          E(Eh)            E(eV)
   0   2.0000     -19.233146      -523.3605
   1   2.0000     -10.322896      -280.9003
   2   2.0000      -1.113223       -30.2923
   3   2.0000      -0.793348       -21.5881
   4   2.0000      -0.593360       -16.1461
   5   2.0000      -0.542934       -14.7740
   6   2.0000      -0.519461       -14.1352
   7   2.0000      -0.426385       -11.6025
   8   2.0000      -0.376166       -10.2360
   9   0.0000       0.072211         1.9650
  10   0.0000       0.134154         3.6505
  11   0.0000       0.135912         3.6983
  12   0.0000       0.169651         4.6164
  13   0.0000       0.190657         5.1880

MULLIKEN ATOMIC CHARGES
-----------------------
   0 C :   -0.006132
   1 O :   -0.003290
   2 H :   -0.000420
   3 H :    0.000317
   4 H :    0.000153
   5 H :    0.000565
   6 C :   -0.181523
   7 O :   -0.482547
   8 H :    0.317760
   9 H :    0.124001
  10 H :    0.115353
  11 H :    0.115761
Sum of atomic charges:   -0.0000000

LOEWDIN ATOMIC CHARGES
----------------------
   0 C :   -0.005378
   1 O :   -0.018562
   2 H :   -0.000919
   3 H :   -0.000094
   4 H :   -0.000086
   5 H :   -0.001094
   6 C :   -0.354833
   7 O :   -0.120659
   8 H :    0.190938
   9 H :    0.116417
  10 H :    0.096870
  11 H :    0.097400

  Mayer bond orders larger than 0.1
B(  6-C ,  7-O ) :   0.9934 B(  6-C ,  9-H ) :   0.9695 B(  6-C , 10-H ) :   0.9708
B(  6-C , 11-H ) :   0.9793 B(  7-O ,  8-H ) :   0.8937

Dispersion correction           -0.000277107
FINAL SINGLE POINT ENERGY      -115.730894452950

DIPOLE MOMENT
-------------
                                X             Y             Z
Electronic contribution:     -0.26173       0.94685      -1.53731
Nuclear contribution   :     -0.05974      -0.92872       2.17356
                        -----------------------------------------
Total Dipole Moment    :     -0.32147       0.01814       0.63624
                        -----------------------------------------
Magnitude (a.u.)       :      0.71307
Magnitude (Debye)      :      1.81249

Rotational constants in cm-1:     4.231105     0.768250     0.747339
Rotational constants in MHz : 126845.341093 23031.556240 22404.652749

                             ****ORCA TERMINATED NORMALLY****
TOTAL RUN TIME: 0 days 0 hours 1 minutes 8 seconds 742 msec
