                         Program Version 4.1.2  - RELEASE  -
|  1> #Run DFT-D3 single point of the dimer
|  2> ! wB97X-D3 def2-TZVP TIGHTSCF CHELPG PMODEL PAL8
|  3>
|  4> %base "12-124_DFT_AB"
|  5>
|  6> %scf
|  7> MaxIter 1000
|  8> end
|  9>
| 10> * xyz 0 1
| 11>   C                      5.041484             0.838788             -10.238675
| 12>   O                      5.819036             1.876236             -9.692237
| 13>   H                      5.582143             1.881685             -8.727786
| 14>   H                      4.053513             1.244202             -10.335477
| 15>   H                      5.368006             0.435696             -11.233262
| 16>   H                      4.956666             -0.013747            -9.578438
| 17>   C                      7.767444             4.566818             -9.133607
| 18>   O                      7.553531             5.905557             -8.779030
| 19>   H                      8.128435             6.432187             -9.348183
| 20>   H                      7.214960             4.367022             -10.062271
| 21>   H                      8.836594             4.365661             -9.249625
| 22>   H                      7.318369             3.888565             -8.383946
| 23> *
| 24>
| 25> #Run DFT-D3 single point of the molecule with dimer basis set
| 26> $new_job
| 27> %base "12-124_DFT_A"
| 28> ! wB97X-D3 def2-TZVP TIGHTSCF CHELPG PMODEL
| 29>
| 30> %scf
| 31> MaxIter 1000
| 32> end
| 33>
| 34> * xyz 0 1
| 35>   C                      5.041484             0.838788             -10.238675
| 36>   O                      5.819036             1.876236             -9.692237
| 37>   H                      5.582143             1.881685             -8.727786
| 38>   H                      4.053513             1.244202             -10.335477
| 39>   H                      5.368006             0.435696             -11.233262
| 40>   H                      4.956666             -0.013747            -9.578438
| 41>   C                    : 7.767444             4.566818             -9.133607
| 42>   O                    : 7.553531             5.905557             -8.779030
| 43>   H                    : 8.128435             6.432187             -9.348183
| 44>   H                    : 7.214960             4.367022             -10.062271
| 45>   H                    : 8.836594             4.365661             -9.249625
| 46>   H                    : 7.318369             3.888565             -8.383946
| 47> *
| 48>
| 49> #Run DFT-D3 single point of the particle with dimer basis set
| 50> $new_job
| 51> %base "12-124_DFT_B"
| 52> ! wB97X-D3 def2-TZVP TIGHTSCF CHELPG PMODEL
| 53>
| 54> %scf
| 55> MaxIter 1000
| 56> end
| 57>
| 58> * xyz 0 1
| 59>   C                    : 5.041484             0.838788             -10.238675
| 60>   O                    : 5.819036             1.876236             -9.692237
| 61>   H                    : 5.582143             1.881685             -8.727786
| 62>   H                    : 4.053513             1.244202             -10.335477
| 63>   H                    : 5.368006             0.435696             -11.233262
| 64>   H                    : 4.956666             -0.013747            -9.578438
| 65>   C                      7.767444             4.566818             -9.133607
| 66>   O                      7.553531             5.905557             -8.779030
| 67>   H                      8.128435             6.432187             -9.348183
| 68>   H                      7.214960             4.367022             -10.062271
| 69>   H                      8.836594             4.365661             -9.249625
| 70>   H                      7.318369             3.888565             -8.383946
| 71> *
| 72>
| 73>                          ****END OF INPUT****
 Total Charge           Charge          ....    0
 Multiplicity           Mult            ....    1
 Number of Electrons    NEL             ....   36
Dispersion correction           -0.001365467
FINAL SINGLE POINT ENERGY      -231.467399968415
Dispersion correction           -0.000223153
FINAL SINGLE POINT ENERGY      -115.730742184903

CARTESIAN COORDINATES (ANGSTROEM)
---------------------------------
  C      5.041484    0.838788  -10.238675
  O      5.819036    1.876236   -9.692237
  H      5.582143    1.881685   -8.727786
  H      4.053513    1.244202  -10.335477
  H      5.368006    0.435696  -11.233262
  H      4.956666   -0.013747   -9.578438
  C      7.767444    4.566818   -9.133607
  O      7.553531    5.905557   -8.779030
  H      8.128435    6.432187   -9.348183
  H      7.214960    4.367022  -10.062271
  H      8.836594    4.365661   -9.249625
  H      7.318369    3.888565   -8.383946

 Multiplicity           Mult            ....    1
 Number of Electrons    NEL             ....   18
 Basis Dimension        Dim             ....  172

ORBITAL ENERGIES
----------------

  NO   OCC          E(Eh)            E(eV)
   0   2.0000     -19.228860      -523.2439
   1   2.0000     -10.313127      -280.6345
   2   2.0000      -1.139677       -31.0122
   3   2.0000      -0.790977       -21.5236
   4   2.0000      -0.609906       -16.5964
   5   2.0000      -0.545850       -14.8533
   6   2.0000      -0.528655       -14.3854
   7   2.0000      -0.432790       -11.7768
   8   2.0000      -0.370550       -10.0832
   9   0.0000       0.085359         2.3227
  10   0.0000       0.114998         3.1293
  11   0.0000       0.146322         3.9816
  12   0.0000       0.173862         4.7310
  13   0.0000       0.195976         5.3328

MULLIKEN ATOMIC CHARGES
-----------------------
   0 C :   -0.000651
   1 O :   -0.000989
   2 H :   -0.000209
   3 H :    0.000020
   4 H :    0.000007
   5 H :    0.000008
   6 C :   -0.159603
   7 O :   -0.468339
   8 H :    0.314534
   9 H :    0.097143
  10 H :    0.100038
  11 H :    0.118042
Sum of atomic charges:    0.0000000

LOEWDIN ATOMIC CHARGES
----------------------
   0 C :   -0.000295
   1 O :   -0.003397
   2 H :   -0.001891
   3 H :   -0.000011
   4 H :   -0.000011
   5 H :   -0.000007
   6 C :   -0.396529
   7 O :   -0.073023
   8 H :    0.173330
   9 H :    0.095813
  10 H :    0.094526
  11 H :    0.111494

  Mayer bond orders larger than 0.1
B(  6-C ,  7-O ) :   0.9997 B(  6-C ,  9-H ) :   0.9793 B(  6-C , 10-H ) :   0.9764
B(  6-C , 11-H ) :   0.9709 B(  7-O ,  8-H ) :   0.8990

Dispersion correction           -0.000222928
FINAL SINGLE POINT ENERGY      -115.735536050741

DIPOLE MOMENT
-------------
                                X             Y             Z
Electronic contribution:     -0.30633       1.66835       0.59293
Nuclear contribution   :      0.75053      -1.85420      -1.07947
                        -----------------------------------------
Total Dipole Moment    :      0.44420      -0.18585      -0.48654
                        -----------------------------------------
Magnitude (a.u.)       :      0.68453
Magnitude (Debye)      :      1.73993

Rotational constants in cm-1:     4.195581     0.849365     0.816654
Rotational constants in MHz : 125780.359812 25463.316104 24482.675049

                             ****ORCA TERMINATED NORMALLY****
TOTAL RUN TIME: 0 days 0 hours 1 minutes 8 seconds 469 msec
