                         Program Version 4.1.2  - RELEASE  -
|  1> #Run DFT-D3 single point of the dimer
|  2> ! wB97X-D3 def2-TZVP TIGHTSCF CHELPG PMODEL PAL8
|  3>
|  4> %base "17-117_DFT_AB"
|  5>
|  6> %scf
|  7> MaxIter 1000
|  8> end
|  9>
| 10> * xyz 0 1
| 11>   C                      -9.469355            -5.034915            5.023516
| 12>   O                      -9.137636            -6.276195            4.482305
| 13>   H                      -8.185798            -6.198072            4.385905
| 14>   H                      -10.343936           -5.070091            5.588574
| 15>   H                      -8.660249            -4.668172            5.713455
| 16>   H                      -9.621374            -4.272023            4.221521
| 17>   C                      -5.806224            -7.343673            -0.405373
| 18>   O                      -6.798770            -6.609270            0.234810
| 19>   H                      -7.044524            -7.136931            0.983341
| 20>   H                      -5.128321            -7.722086            0.349345
| 21>   H                      -6.127042            -8.151048            -0.959240
| 22>   H                      -5.253298            -6.661296            -0.932409
| 23> *
| 24>
| 25> #Run DFT-D3 single point of the molecule with dimer basis set
| 26> $new_job
| 27> %base "17-117_DFT_A"
| 28> ! wB97X-D3 def2-TZVP TIGHTSCF CHELPG PMODEL
| 29>
| 30> %scf
| 31> MaxIter 1000
| 32> end
| 33>
| 34> * xyz 0 1
| 35>   C                      -9.469355            -5.034915            5.023516
| 36>   O                      -9.137636            -6.276195            4.482305
| 37>   H                      -8.185798            -6.198072            4.385905
| 38>   H                      -10.343936           -5.070091            5.588574
| 39>   H                      -8.660249            -4.668172            5.713455
| 40>   H                      -9.621374            -4.272023            4.221521
| 41>   C                    : -5.806224            -7.343673            -0.405373
| 42>   O                    : -6.798770            -6.609270            0.234810
| 43>   H                    : -7.044524            -7.136931            0.983341
| 44>   H                    : -5.128321            -7.722086            0.349345
| 45>   H                    : -6.127042            -8.151048            -0.959240
| 46>   H                    : -5.253298            -6.661296            -0.932409
| 47> *
| 48>
| 49> #Run DFT-D3 single point of the particle with dimer basis set
| 50> $new_job
| 51> %base "17-117_DFT_B"
| 52> ! wB97X-D3 def2-TZVP TIGHTSCF CHELPG PMODEL
| 53>
| 54> %scf
| 55> MaxIter 1000
| 56> end
| 57>
| 58> * xyz 0 1
| 59>   C                    : -9.469355            -5.034915            5.023516
| 60>   O                    : -9.137636            -6.276195            4.482305
| 61>   H                    : -8.185798            -6.198072            4.385905
| 62>   H                    : -10.343936           -5.070091            5.588574
| 63>   H                    : -8.660249            -4.668172            5.713455
| 64>   H                    : -9.621374            -4.272023            4.221521
| 65>   C                      -5.806224            -7.343673            -0.405373
| 66>   O                      -6.798770            -6.609270            0.234810
| 67>   H                      -7.044524            -7.136931            0.983341
| 68>   H                      -5.128321            -7.722086            0.349345
| 69>   H                      -6.127042            -8.151048            -0.959240
| 70>   H                      -5.253298            -6.661296            -0.932409
| 71> *
| 72>
| 73>                          ****END OF INPUT****
 Total Charge           Charge          ....    0
 Multiplicity           Mult            ....    1
 Number of Electrons    NEL             ....   36
Dispersion correction           -0.000597842
FINAL SINGLE POINT ENERGY      -231.460555841657
Dispersion correction           -0.000220572
FINAL SINGLE POINT ENERGY      -115.732387210981

CARTESIAN COORDINATES (ANGSTROEM)
---------------------------------
  C     -9.469355   -5.034915    5.023516
  O     -9.137636   -6.276195    4.482305
  H     -8.185798   -6.198072    4.385905
  H    -10.343936   -5.070091    5.588574
  H     -8.660249   -4.668172    5.713455
  H     -9.621374   -4.272023    4.221521
  C     -5.806224   -7.343673   -0.405373
  O     -6.798770   -6.609270    0.234810
  H     -7.044524   -7.136931    0.983341
  H     -5.128321   -7.722086    0.349345
  H     -6.127042   -8.151048   -0.959240
  H     -5.253298   -6.661296   -0.932409

 Multiplicity           Mult            ....    1
 Number of Electrons    NEL             ....   18
 Basis Dimension        Dim             ....  172

ORBITAL ENERGIES
----------------

  NO   OCC          E(Eh)            E(eV)
   0   2.0000     -19.226286      -523.1738
   1   2.0000     -10.293993      -280.1138
   2   2.0000      -1.146645       -31.2018
   3   2.0000      -0.804975       -21.9045
   4   2.0000      -0.619810       -16.8659
   5   2.0000      -0.556529       -15.1439
   6   2.0000      -0.530315       -14.4306
   7   2.0000      -0.436905       -11.8888
   8   2.0000      -0.374427       -10.1887
   9   0.0000       0.084047         2.2870
  10   0.0000       0.114719         3.1217
  11   0.0000       0.156934         4.2704
  12   0.0000       0.178898         4.8681
  13   0.0000       0.196999         5.3606

MULLIKEN ATOMIC CHARGES
-----------------------
   0 C :    0.000026
   1 O :    0.000006
   2 H :   -0.000155
   3 H :   -0.000000
   4 H :    0.000000
   5 H :   -0.000007
   6 C :   -0.156463
   7 O :   -0.469970
   8 H :    0.311013
   9 H :    0.094338
  10 H :    0.104006
  11 H :    0.117205
Sum of atomic charges:   -0.0000000

LOEWDIN ATOMIC CHARGES
----------------------
   0 C :   -0.000004
   1 O :   -0.000012
   2 H :   -0.000136
   3 H :   -0.000000
   4 H :   -0.000000
   5 H :   -0.000001
   6 C :   -0.382146
   7 O :   -0.053646
   8 H :    0.163556
   9 H :    0.096456
  10 H :    0.081205
  11 H :    0.094729

  Mayer bond orders larger than 0.1
B(  6-C ,  7-O ) :   1.0016 B(  6-C ,  9-H ) :   0.9937 B(  6-C , 10-H ) :   0.9695
B(  6-C , 11-H ) :   0.9799 B(  7-O ,  8-H ) :   0.9066

Dispersion correction           -0.000196337
FINAL SINGLE POINT ENERGY      -115.727860407726

DIPOLE MOMENT
-------------
                                X             Y             Z
Electronic contribution:     -1.33440       0.99840       0.55316
Nuclear contribution   :      1.58338      -1.61384      -0.32391
                        -----------------------------------------
Total Dipole Moment    :      0.24897      -0.61544       0.22925
                        -----------------------------------------
Magnitude (a.u.)       :      0.70235
Magnitude (Debye)      :      1.78524

Rotational constants in cm-1:     4.562545     0.873413     0.842573
Rotational constants in MHz : 136781.669223 26184.273336 25259.714268

                             ****ORCA TERMINATED NORMALLY****
TOTAL RUN TIME: 0 days 0 hours 0 minutes 57 seconds 230 msec
