                         Program Version 4.1.2  - RELEASE  -
|  1> #Run DFT-D3 single point of the dimer
|  2> ! wB97X-D3 def2-TZVP TIGHTSCF CHELPG PMODEL PAL8
|  3>
|  4> %base "19-80_DFT_AB"
|  5>
|  6> %scf
|  7> MaxIter 1000
|  8> end
|  9>
| 10> * xyz 0 1
| 11>   C                      -4.824653            -10.147423           5.995258
| 12>   O                      -3.540694            -9.794573            6.520729
| 13>   H                      -3.402781            -8.849417            6.277806
| 14>   H                      -5.412021            -9.291457            5.854448
| 15>   H                      -4.591156            -10.588656           5.073679
| 16>   H                      -5.447185            -10.807198           6.600243
| 17>   C                      -4.870710            -11.223837           1.960255
| 18>   O                      -3.714352            -10.481646           1.690987
| 19>   H                      -3.151898            -10.923892           1.020329
| 20>   H                      -5.616214            -11.020734           1.134862
| 21>   H                      -4.660132            -12.240792           1.941456
| 22>   H                      -5.402218            -11.006514           2.911364
| 23> *
| 24>
| 25> #Run DFT-D3 single point of the molecule with dimer basis set
| 26> $new_job
| 27> %base "19-80_DFT_A"
| 28> ! wB97X-D3 def2-TZVP TIGHTSCF CHELPG PMODEL
| 29>
| 30> %scf
| 31> MaxIter 1000
| 32> end
| 33>
| 34> * xyz 0 1
| 35>   C                      -4.824653            -10.147423           5.995258
| 36>   O                      -3.540694            -9.794573            6.520729
| 37>   H                      -3.402781            -8.849417            6.277806
| 38>   H                      -5.412021            -9.291457            5.854448
| 39>   H                      -4.591156            -10.588656           5.073679
| 40>   H                      -5.447185            -10.807198           6.600243
| 41>   C                    : -4.870710            -11.223837           1.960255
| 42>   O                    : -3.714352            -10.481646           1.690987
| 43>   H                    : -3.151898            -10.923892           1.020329
| 44>   H                    : -5.616214            -11.020734           1.134862
| 45>   H                    : -4.660132            -12.240792           1.941456
| 46>   H                    : -5.402218            -11.006514           2.911364
| 47> *
| 48>
| 49> #Run DFT-D3 single point of the particle with dimer basis set
| 50> $new_job
| 51> %base "19-80_DFT_B"
| 52> ! wB97X-D3 def2-TZVP TIGHTSCF CHELPG PMODEL
| 53>
| 54> %scf
| 55> MaxIter 1000
| 56> end
| 57>
| 58> * xyz 0 1
| 59>   C                    : -4.824653            -10.147423           5.995258
| 60>   O                    : -3.540694            -9.794573            6.520729
| 61>   H                    : -3.402781            -8.849417            6.277806
| 62>   H                    : -5.412021            -9.291457            5.854448
| 63>   H                    : -4.591156            -10.588656           5.073679
| 64>   H                    : -5.447185            -10.807198           6.600243
| 65>   C                      -4.870710            -11.223837           1.960255
| 66>   O                      -3.714352            -10.481646           1.690987
| 67>   H                      -3.151898            -10.923892           1.020329
| 68>   H                      -5.616214            -11.020734           1.134862
| 69>   H                      -4.660132            -12.240792           1.941456
| 70>   H                      -5.402218            -11.006514           2.911364
| 71> *
| 72>
| 73>                          ****END OF INPUT****
 Total Charge           Charge          ....    0
 Multiplicity           Mult            ....    1
 Number of Electrons    NEL             ....   36
Dispersion correction           -0.001253988
FINAL SINGLE POINT ENERGY      -231.458490993095
Dispersion correction           -0.000224396
FINAL SINGLE POINT ENERGY      -115.727954382543

CARTESIAN COORDINATES (ANGSTROEM)
---------------------------------
  C     -4.824653  -10.147423    5.995258
  O     -3.540694   -9.794573    6.520729
  H     -3.402781   -8.849417    6.277806
  H     -5.412021   -9.291457    5.854448
  H     -4.591156  -10.588656    5.073679
  H     -5.447185  -10.807198    6.600243
  C     -4.870710  -11.223837    1.960255
  O     -3.714352  -10.481646    1.690987
  H     -3.151898  -10.923892    1.020329
  H     -5.616214  -11.020734    1.134862
  H     -4.660132  -12.240792    1.941456
  H     -5.402218  -11.006514    2.911364

 Multiplicity           Mult            ....    1
 Number of Electrons    NEL             ....   18
 Basis Dimension        Dim             ....  172

ORBITAL ENERGIES
----------------

  NO   OCC          E(Eh)            E(eV)
   0   2.0000     -19.229361      -523.2575
   1   2.0000     -10.311745      -280.5968
   2   2.0000      -1.134276       -30.8652
   3   2.0000      -0.794960       -21.6320
   4   2.0000      -0.614203       -16.7133
   5   2.0000      -0.538796       -14.6614
   6   2.0000      -0.533600       -14.5200
   7   2.0000      -0.427212       -11.6250
   8   2.0000      -0.368112       -10.0168
   9   0.0000       0.091396         2.4870
  10   0.0000       0.114810         3.1241
  11   0.0000       0.150405         4.0927
  12   0.0000       0.176051         4.7906
  13   0.0000       0.195827         5.3287

MULLIKEN ATOMIC CHARGES
-----------------------
   0 C :   -0.002367
   1 O :   -0.000020
   2 H :   -0.000012
   3 H :   -0.000355
   4 H :    0.004968
   5 H :    0.000228
   6 C :   -0.171460
   7 O :   -0.483346
   8 H :    0.320493
   9 H :    0.100498
  10 H :    0.113044
  11 H :    0.118330
Sum of atomic charges:   -0.0000000

LOEWDIN ATOMIC CHARGES
----------------------
   0 C :   -0.002464
   1 O :   -0.000023
   2 H :   -0.000010
   3 H :   -0.000113
   4 H :   -0.003574
   5 H :   -0.000022
   6 C :   -0.393757
   7 O :   -0.079754
   8 H :    0.183185
   9 H :    0.100522
  10 H :    0.082908
  11 H :    0.113100

  Mayer bond orders larger than 0.1
B(  6-C ,  7-O ) :   0.9934 B(  6-C ,  9-H ) :   0.9839 B(  6-C , 10-H ) :   0.9822
B(  6-C , 11-H ) :   0.9691 B(  7-O ,  8-H ) :   0.8902

Dispersion correction           -0.000239738
FINAL SINGLE POINT ENERGY      -115.729874177076

DIPOLE MOMENT
-------------
                                X             Y             Z
Electronic contribution:      1.54429       1.01968      -0.12586
Nuclear contribution   :     -1.62347      -1.62830      -0.18023
                        -----------------------------------------
Total Dipole Moment    :     -0.07918      -0.60862      -0.30609
                        -----------------------------------------
Magnitude (a.u.)       :      0.68584
Magnitude (Debye)      :      1.74327

Rotational constants in cm-1:     4.381588     0.833958     0.806467
Rotational constants in MHz : 131356.714641 25001.419502 24177.272388

                             ****ORCA TERMINATED NORMALLY****
TOTAL RUN TIME: 0 days 0 hours 2 minutes 19 seconds 337 msec
