                         Program Version 4.1.2  - RELEASE  -
|  1> #Run DFT-D3 single point of the dimer
|  2> ! wB97X-D3 def2-TZVP TIGHTSCF CHELPG PMODEL PAL8
|  3>
|  4> %base "16-107_DFT_AB"
|  5>
|  6> %scf
|  7> MaxIter 1000
|  8> end
|  9>
| 10> * xyz 0 1
| 11>   C                      -5.734501            -10.192023           -5.611026
| 12>   O                      -4.666098            -9.342436            -5.831175
| 13>   H                      -5.044080            -8.663797            -6.404960
| 14>   H                      -6.608225            -9.629141            -5.369410
| 15>   H                      -5.796766            -10.794661           -6.500832
| 16>   H                      -5.543738            -10.761625           -4.659608
| 17>   C                      -4.378816            -5.444975            -7.083358
| 18>   O                      -3.902493            -4.999915            -5.752956
| 19>   H                      -4.605135            -4.794553            -5.102366
| 20>   H                      -3.555004            -5.316298            -7.839353
| 21>   H                      -4.635740            -6.488972            -7.022439
| 22>   H                      -5.237637            -4.998744            -7.524706
| 23> *
| 24>
| 25> #Run DFT-D3 single point of the molecule with dimer basis set
| 26> $new_job
| 27> %base "16-107_DFT_A"
| 28> ! wB97X-D3 def2-TZVP TIGHTSCF CHELPG PMODEL
| 29>
| 30> %scf
| 31> MaxIter 1000
| 32> end
| 33>
| 34> * xyz 0 1
| 35>   C                      -5.734501            -10.192023           -5.611026
| 36>   O                      -4.666098            -9.342436            -5.831175
| 37>   H                      -5.044080            -8.663797            -6.404960
| 38>   H                      -6.608225            -9.629141            -5.369410
| 39>   H                      -5.796766            -10.794661           -6.500832
| 40>   H                      -5.543738            -10.761625           -4.659608
| 41>   C                    : -4.378816            -5.444975            -7.083358
| 42>   O                    : -3.902493            -4.999915            -5.752956
| 43>   H                    : -4.605135            -4.794553            -5.102366
| 44>   H                    : -3.555004            -5.316298            -7.839353
| 45>   H                    : -4.635740            -6.488972            -7.022439
| 46>   H                    : -5.237637            -4.998744            -7.524706
| 47> *
| 48>
| 49> #Run DFT-D3 single point of the particle with dimer basis set
| 50> $new_job
| 51> %base "16-107_DFT_B"
| 52> ! wB97X-D3 def2-TZVP TIGHTSCF CHELPG PMODEL
| 53>
| 54> %scf
| 55> MaxIter 1000
| 56> end
| 57>
| 58> * xyz 0 1
| 59>   C                    : -5.734501            -10.192023           -5.611026
| 60>   O                    : -4.666098            -9.342436            -5.831175
| 61>   H                    : -5.044080            -8.663797            -6.404960
| 62>   H                    : -6.608225            -9.629141            -5.369410
| 63>   H                    : -5.796766            -10.794661           -6.500832
| 64>   H                    : -5.543738            -10.761625           -4.659608
| 65>   C                      -4.378816            -5.444975            -7.083358
| 66>   O                      -3.902493            -4.999915            -5.752956
| 67>   H                      -4.605135            -4.794553            -5.102366
| 68>   H                      -3.555004            -5.316298            -7.839353
| 69>   H                      -4.635740            -6.488972            -7.022439
| 70>   H                      -5.237637            -4.998744            -7.524706
| 71> *
| 72>
| 73>                          ****END OF INPUT****
 Total Charge           Charge          ....    0
 Multiplicity           Mult            ....    1
 Number of Electrons    NEL             ....   36
Dispersion correction           -0.001165372
FINAL SINGLE POINT ENERGY      -231.456025810709
Dispersion correction           -0.000193654
FINAL SINGLE POINT ENERGY      -115.729584954951

CARTESIAN COORDINATES (ANGSTROEM)
---------------------------------
  C     -5.734501  -10.192023   -5.611026
  O     -4.666098   -9.342436   -5.831175
  H     -5.044080   -8.663797   -6.404960
  H     -6.608225   -9.629141   -5.369410
  H     -5.796766  -10.794661   -6.500832
  H     -5.543738  -10.761625   -4.659608
  C     -4.378816   -5.444975   -7.083358
  O     -3.902493   -4.999915   -5.752956
  H     -4.605135   -4.794553   -5.102366
  H     -3.555004   -5.316298   -7.839353
  H     -4.635740   -6.488972   -7.022439
  H     -5.237637   -4.998744   -7.524706

 Multiplicity           Mult            ....    1
 Number of Electrons    NEL             ....   18
 Basis Dimension        Dim             ....  172

ORBITAL ENERGIES
----------------

  NO   OCC          E(Eh)            E(eV)
   0   2.0000     -19.230626      -523.2919
   1   2.0000     -10.317854      -280.7631
   2   2.0000      -1.108898       -30.1747
   3   2.0000      -0.802589       -21.8396
   4   2.0000      -0.604245       -16.4423
   5   2.0000      -0.532855       -14.4997
   6   2.0000      -0.512134       -13.9359
   7   2.0000      -0.432200       -11.7607
   8   2.0000      -0.374597       -10.1933
   9   0.0000       0.086648         2.3578
  10   0.0000       0.116844         3.1795
  11   0.0000       0.143757         3.9118
  12   0.0000       0.173370         4.7176
  13   0.0000       0.193501         5.2654

MULLIKEN ATOMIC CHARGES
-----------------------
   0 C :   -0.000610
   1 O :   -0.000311
   2 H :    0.004125
   3 H :    0.000054
   4 H :    0.000026
   5 H :   -0.000020
   6 C :   -0.162167
   7 O :   -0.502728
   8 H :    0.317963
   9 H :    0.125921
  10 H :    0.101649
  11 H :    0.116098
Sum of atomic charges:    0.0000000

LOEWDIN ATOMIC CHARGES
----------------------
   0 C :   -0.000059
   1 O :   -0.000365
   2 H :   -0.005353
   3 H :   -0.000003
   4 H :   -0.000000
   5 H :   -0.000001
   6 C :   -0.337654
   7 O :   -0.132785
   8 H :    0.172478
   9 H :    0.117464
  10 H :    0.096298
  11 H :    0.089979

  Mayer bond orders larger than 0.1
B(  6-C ,  7-O ) :   0.9925 B(  6-C ,  9-H ) :   0.9757 B(  6-C , 10-H ) :   0.9750
B(  6-C , 11-H ) :   0.9688 B(  7-O ,  8-H ) :   0.8919

Dispersion correction           -0.000307063
FINAL SINGLE POINT ENERGY      -115.727267792671

DIPOLE MOMENT
-------------
                                X             Y             Z
Electronic contribution:      0.62512       0.61766       1.61284
Nuclear contribution   :     -1.31378      -0.68202      -1.79077
                        -----------------------------------------
Total Dipole Moment    :     -0.68866      -0.06436      -0.17793
                        -----------------------------------------
Magnitude (a.u.)       :      0.71418
Magnitude (Debye)      :      1.81531

Rotational constants in cm-1:     4.499876     0.755200     0.728352
Rotational constants in MHz : 134902.878812 22640.332239 21835.440704

                             ****ORCA TERMINATED NORMALLY****
TOTAL RUN TIME: 0 days 0 hours 1 minutes 4 seconds 408 msec
