                         Program Version 4.1.2  - RELEASE  -
|  1> #Run DFT-D3 single point of the dimer
|  2> ! wB97X-D3 def2-TZVP TIGHTSCF CHELPG PMODEL PAL8
|  3>
|  4> %base "5-61_DFT_AB"
|  5>
|  6> %scf
|  7> MaxIter 1000
|  8> end
|  9>
| 10> * xyz 0 1
| 11>   C                      -9.804069            7.900826             8.547474
| 12>   O                      -9.071154            7.709983             9.761684
| 13>   H                      -8.392500            7.044270             9.630347
| 14>   H                      -10.682411           8.493206             8.766984
| 15>   H                      -9.235418            8.590576             7.867122
| 16>   H                      -10.142781           7.030390             7.977538
| 17>   C                      -5.684015            9.857647             7.449230
| 18>   O                      -6.721739            10.733830            7.907810
| 19>   H                      -7.462651            10.156869            8.055828
| 20>   H                      -4.800477            10.472967            7.176376
| 21>   H                      -5.382355            9.220520             8.260424
| 22>   H                      -5.806850            9.106552             6.643871
| 23> *
| 24>
| 25> #Run DFT-D3 single point of the molecule with dimer basis set
| 26> $new_job
| 27> %base "5-61_DFT_A"
| 28> ! wB97X-D3 def2-TZVP TIGHTSCF CHELPG PMODEL
| 29>
| 30> %scf
| 31> MaxIter 1000
| 32> end
| 33>
| 34> * xyz 0 1
| 35>   C                      -9.804069            7.900826             8.547474
| 36>   O                      -9.071154            7.709983             9.761684
| 37>   H                      -8.392500            7.044270             9.630347
| 38>   H                      -10.682411           8.493206             8.766984
| 39>   H                      -9.235418            8.590576             7.867122
| 40>   H                      -10.142781           7.030390             7.977538
| 41>   C                    : -5.684015            9.857647             7.449230
| 42>   O                    : -6.721739            10.733830            7.907810
| 43>   H                    : -7.462651            10.156869            8.055828
| 44>   H                    : -4.800477            10.472967            7.176376
| 45>   H                    : -5.382355            9.220520             8.260424
| 46>   H                    : -5.806850            9.106552             6.643871
| 47> *
| 48>
| 49> #Run DFT-D3 single point of the particle with dimer basis set
| 50> $new_job
| 51> %base "5-61_DFT_B"
| 52> ! wB97X-D3 def2-TZVP TIGHTSCF CHELPG PMODEL
| 53>
| 54> %scf
| 55> MaxIter 1000
| 56> end
| 57>
| 58> * xyz 0 1
| 59>   C                    : -9.804069            7.900826             8.547474
| 60>   O                    : -9.071154            7.709983             9.761684
| 61>   H                    : -8.392500            7.044270             9.630347
| 62>   H                    : -10.682411           8.493206             8.766984
| 63>   H                    : -9.235418            8.590576             7.867122
| 64>   H                    : -10.142781           7.030390             7.977538
| 65>   C                      -5.684015            9.857647             7.449230
| 66>   O                      -6.721739            10.733830            7.907810
| 67>   H                      -7.462651            10.156869            8.055828
| 68>   H                      -4.800477            10.472967            7.176376
| 69>   H                      -5.382355            9.220520             8.260424
| 70>   H                      -5.806850            9.106552             6.643871
| 71> *
| 72>
| 73>                          ****END OF INPUT****
 Total Charge           Charge          ....    0
 Multiplicity           Mult            ....    1
 Number of Electrons    NEL             ....   36
Dispersion correction           -0.001454379
FINAL SINGLE POINT ENERGY      -231.464711146174
Dispersion correction           -0.000275749
FINAL SINGLE POINT ENERGY      -115.733950214454

CARTESIAN COORDINATES (ANGSTROEM)
---------------------------------
  C     -9.804069    7.900826    8.547474
  O     -9.071154    7.709983    9.761684
  H     -8.392500    7.044270    9.630347
  H    -10.682411    8.493206    8.766984
  H     -9.235418    8.590576    7.867122
  H    -10.142781    7.030390    7.977538
  C     -5.684015    9.857647    7.449230
  O     -6.721739   10.733830    7.907810
  H     -7.462651   10.156869    8.055828
  H     -4.800477   10.472967    7.176376
  H     -5.382355    9.220520    8.260424
  H     -5.806850    9.106552    6.643871

 Multiplicity           Mult            ....    1
 Number of Electrons    NEL             ....   18
 Basis Dimension        Dim             ....  172

ORBITAL ENERGIES
----------------

  NO   OCC          E(Eh)            E(eV)
   0   2.0000     -19.236540      -523.4529
   1   2.0000     -10.315584      -280.7013
   2   2.0000      -1.137842       -30.9623
   3   2.0000      -0.797497       -21.7010
   4   2.0000      -0.615451       -16.7473
   5   2.0000      -0.533583       -14.5195
   6   2.0000      -0.517989       -14.0952
   7   2.0000      -0.446783       -12.1576
   8   2.0000      -0.375435       -10.2161
   9   0.0000       0.069487         1.8908
  10   0.0000       0.130755         3.5580
  11   0.0000       0.144399         3.9293
  12   0.0000       0.157291         4.2801
  13   0.0000       0.188584         5.1316

MULLIKEN ATOMIC CHARGES
-----------------------
   0 C :    0.001132
   1 O :   -0.000014
   2 H :   -0.000011
   3 H :   -0.000079
   4 H :   -0.003962
   5 H :   -0.000074
   6 C :   -0.186394
   7 O :   -0.460684
   8 H :    0.312131
   9 H :    0.124641
  10 H :    0.108477
  11 H :    0.104837
Sum of atomic charges:   -0.0000000

LOEWDIN ATOMIC CHARGES
----------------------
   0 C :   -0.001556
   1 O :   -0.000124
   2 H :   -0.000057
   3 H :   -0.000016
   4 H :   -0.003142
   5 H :   -0.000011
   6 C :   -0.386213
   7 O :   -0.075182
   8 H :    0.163425
   9 H :    0.113896
  10 H :    0.091467
  11 H :    0.097511

  Mayer bond orders larger than 0.1
B(  6-C ,  7-O ) :   0.9971 B(  6-C ,  9-H ) :   0.9769 B(  6-C , 10-H ) :   0.9806
B(  6-C , 11-H ) :   0.9600 B(  7-O ,  8-H ) :   0.9084

Dispersion correction           -0.000264244
FINAL SINGLE POINT ENERGY      -115.729864274493

DIPOLE MOMENT
-------------
                                X             Y             Z
Electronic contribution:     -1.39784       1.31007       0.50737
Nuclear contribution   :      1.34968      -2.02354      -0.57754
                        -----------------------------------------
Total Dipole Moment    :     -0.04816      -0.71347      -0.07017
                        -----------------------------------------
Magnitude (a.u.)       :      0.71853
Magnitude (Debye)      :      1.82635

Rotational constants in cm-1:     4.437990     0.809258     0.771380
Rotational constants in MHz : 133047.593028 24260.950116 23125.398162

                             ****ORCA TERMINATED NORMALLY****
TOTAL RUN TIME: 0 days 0 hours 0 minutes 50 seconds 15 msec
