                         Program Version 4.1.2  - RELEASE  -
|  1> #Run DFT-D3 single point of the dimer
|  2> ! wB97X-D3 def2-TZVP TIGHTSCF CHELPG PMODEL PAL8
|  3>
|  4> %base "19-131_DFT_AB"
|  5>
|  6> %scf
|  7> MaxIter 1000
|  8> end
|  9>
| 10> * xyz 0 1
| 11>   C                      -9.648259            -7.114879            0.808518
| 12>   O                      -10.714223           -6.721313            1.572976
| 13>   H                      -11.489091           -7.226045            1.245931
| 14>   H                      -8.693586            -6.596970            1.099219
| 15>   H                      -9.395222            -8.139283            0.973610
| 16>   H                      -9.822167            -7.014202            -0.280292
| 17>   C                      -8.825300            -5.163330            4.244927
| 18>   O                      -9.722351            -4.688179            3.283910
| 19>   H                      -10.008389           -5.516770            2.782620
| 20>   H                      -8.744327            -4.444332            4.987679
| 21>   H                      -9.137745            -6.055484            4.742008
| 22>   H                      -7.834679            -5.260936            3.862330
| 23> *
| 24>
| 25> #Run DFT-D3 single point of the molecule with dimer basis set
| 26> $new_job
| 27> %base "19-131_DFT_A"
| 28> ! wB97X-D3 def2-TZVP TIGHTSCF CHELPG PMODEL
| 29>
| 30> %scf
| 31> MaxIter 1000
| 32> end
| 33>
| 34> * xyz 0 1
| 35>   C                      -9.648259            -7.114879            0.808518
| 36>   O                      -10.714223           -6.721313            1.572976
| 37>   H                      -11.489091           -7.226045            1.245931
| 38>   H                      -8.693586            -6.596970            1.099219
| 39>   H                      -9.395222            -8.139283            0.973610
| 40>   H                      -9.822167            -7.014202            -0.280292
| 41>   C                    : -8.825300            -5.163330            4.244927
| 42>   O                    : -9.722351            -4.688179            3.283910
| 43>   H                    : -10.008389           -5.516770            2.782620
| 44>   H                    : -8.744327            -4.444332            4.987679
| 45>   H                    : -9.137745            -6.055484            4.742008
| 46>   H                    : -7.834679            -5.260936            3.862330
| 47> *
| 48>
| 49> #Run DFT-D3 single point of the particle with dimer basis set
| 50> $new_job
| 51> %base "19-131_DFT_B"
| 52> ! wB97X-D3 def2-TZVP TIGHTSCF CHELPG PMODEL
| 53>
| 54> %scf
| 55> MaxIter 1000
| 56> end
| 57>
| 58> * xyz 0 1
| 59>   C                    : -9.648259            -7.114879            0.808518
| 60>   O                    : -10.714223           -6.721313            1.572976
| 61>   H                    : -11.489091           -7.226045            1.245931
| 62>   H                    : -8.693586            -6.596970            1.099219
| 63>   H                    : -9.395222            -8.139283            0.973610
| 64>   H                    : -9.822167            -7.014202            -0.280292
| 65>   C                      -8.825300            -5.163330            4.244927
| 66>   O                      -9.722351            -4.688179            3.283910
| 67>   H                      -10.008389           -5.516770            2.782620
| 68>   H                      -8.744327            -4.444332            4.987679
| 69>   H                      -9.137745            -6.055484            4.742008
| 70>   H                      -7.834679            -5.260936            3.862330
| 71> *
| 72>
| 73>                          ****END OF INPUT****
 Total Charge           Charge          ....    0
 Multiplicity           Mult            ....    1
 Number of Electrons    NEL             ....   36
Dispersion correction           -0.001827260
FINAL SINGLE POINT ENERGY      -231.470439653811
Dispersion correction           -0.000223719
FINAL SINGLE POINT ENERGY      -115.732888453585

CARTESIAN COORDINATES (ANGSTROEM)
---------------------------------
  C     -9.648259   -7.114879    0.808518
  O    -10.714223   -6.721313    1.572976
  H    -11.489091   -7.226045    1.245931
  H     -8.693586   -6.596970    1.099219
  H     -9.395222   -8.139283    0.973610
  H     -9.822167   -7.014202   -0.280292
  C     -8.825300   -5.163330    4.244927
  O     -9.722351   -4.688179    3.283910
  H    -10.008389   -5.516770    2.782620
  H     -8.744327   -4.444332    4.987679
  H     -9.137745   -6.055484    4.742008
  H     -7.834679   -5.260936    3.862330

 Multiplicity           Mult            ....    1
 Number of Electrons    NEL             ....   18
 Basis Dimension        Dim             ....  172

ORBITAL ENERGIES
----------------

  NO   OCC          E(Eh)            E(eV)
   0   2.0000     -19.235644      -523.4285
   1   2.0000     -10.298080      -280.2250
   2   2.0000      -1.134760       -30.8784
   3   2.0000      -0.799476       -21.7549
   4   2.0000      -0.608934       -16.5699
   5   2.0000      -0.549377       -14.9493
   6   2.0000      -0.529880       -14.4188
   7   2.0000      -0.437120       -11.8946
   8   2.0000      -0.374047       -10.1783
   9   0.0000       0.068632         1.8676
  10   0.0000       0.136908         3.7254
  11   0.0000       0.147161         4.0044
  12   0.0000       0.167347         4.5537
  13   0.0000       0.194511         5.2929

MULLIKEN ATOMIC CHARGES
-----------------------
   0 C :   -0.003103
   1 O :   -0.001698
   2 H :   -0.000161
   3 H :   -0.002447
   4 H :    0.000092
   5 H :   -0.000118
   6 C :   -0.160870
   7 O :   -0.462775
   8 H :    0.314098
   9 H :    0.116001
  10 H :    0.101645
  11 H :    0.099337
Sum of atomic charges:    0.0000000

LOEWDIN ATOMIC CHARGES
----------------------
   0 C :   -0.009914
   1 O :   -0.025235
   2 H :   -0.001013
   3 H :   -0.002819
   4 H :   -0.000152
   5 H :   -0.000171
   6 C :   -0.392494
   7 O :   -0.065673
   8 H :    0.217460
   9 H :    0.096422
  10 H :    0.092355
  11 H :    0.091233

  Mayer bond orders larger than 0.1
B(  6-C ,  7-O ) :   1.0058 B(  6-C ,  9-H ) :   0.9799 B(  6-C , 10-H ) :   0.9814
B(  6-C , 11-H ) :   0.9770 B(  7-O ,  8-H ) :   0.9011

Dispersion correction           -0.000223473
FINAL SINGLE POINT ENERGY      -115.730651930471

DIPOLE MOMENT
-------------
                                X             Y             Z
Electronic contribution:     -1.15721       0.73023      -1.19919
Nuclear contribution   :      1.32675      -1.39844       1.29766
                        -----------------------------------------
Total Dipole Moment    :      0.16954      -0.66821       0.09848
                        -----------------------------------------
Magnitude (a.u.)       :      0.69638
Magnitude (Debye)      :      1.77005

Rotational constants in cm-1:     4.438288     0.853633     0.822131
Rotational constants in MHz : 133056.531156 25591.266507 24646.861964

                             ****ORCA TERMINATED NORMALLY****
TOTAL RUN TIME: 0 days 0 hours 0 minutes 51 seconds 284 msec
