                         Program Version 4.1.2  - RELEASE  -
|  1> #Run DFT-D3 single point of the dimer
|  2> ! wB97X-D3 def2-TZVP TIGHTSCF CHELPG PMODEL PAL8
|  3>
|  4> %base "20-99_DFT_AB"
|  5>
|  6> %scf
|  7> MaxIter 1000
|  8> end
|  9>
| 10> * xyz 0 1
| 11>   C                      5.267570             -1.081642            8.103618
| 12>   O                      4.867190             -2.109481            8.947615
| 13>   H                      3.963623             -1.847875            9.170114
| 14>   H                      5.623439             -0.273538            8.761835
| 15>   H                      6.051549             -1.305107            7.366669
| 16>   H                      4.404855             -0.674548            7.564045
| 17>   C                      4.619494             -5.669133            9.328870
| 18>   O                      5.415506             -5.051413            8.453942
| 19>   H                      5.431894             -4.151331            8.758755
| 20>   H                      5.132494             -6.027316            10.281299
| 21>   H                      3.793606             -5.067204            9.683257
| 22>   H                      4.142823             -6.556134            8.824996
| 23> *
| 24>
| 25> #Run DFT-D3 single point of the molecule with dimer basis set
| 26> $new_job
| 27> %base "20-99_DFT_A"
| 28> ! wB97X-D3 def2-TZVP TIGHTSCF CHELPG PMODEL
| 29>
| 30> %scf
| 31> MaxIter 1000
| 32> end
| 33>
| 34> * xyz 0 1
| 35>   C                      5.267570             -1.081642            8.103618
| 36>   O                      4.867190             -2.109481            8.947615
| 37>   H                      3.963623             -1.847875            9.170114
| 38>   H                      5.623439             -0.273538            8.761835
| 39>   H                      6.051549             -1.305107            7.366669
| 40>   H                      4.404855             -0.674548            7.564045
| 41>   C                    : 4.619494             -5.669133            9.328870
| 42>   O                    : 5.415506             -5.051413            8.453942
| 43>   H                    : 5.431894             -4.151331            8.758755
| 44>   H                    : 5.132494             -6.027316            10.281299
| 45>   H                    : 3.793606             -5.067204            9.683257
| 46>   H                    : 4.142823             -6.556134            8.824996
| 47> *
| 48>
| 49> #Run DFT-D3 single point of the particle with dimer basis set
| 50> $new_job
| 51> %base "20-99_DFT_B"
| 52> ! wB97X-D3 def2-TZVP TIGHTSCF CHELPG PMODEL
| 53>
| 54> %scf
| 55> MaxIter 1000
| 56> end
| 57>
| 58> * xyz 0 1
| 59>   C                    : 5.267570             -1.081642            8.103618
| 60>   O                    : 4.867190             -2.109481            8.947615
| 61>   H                    : 3.963623             -1.847875            9.170114
| 62>   H                    : 5.623439             -0.273538            8.761835
| 63>   H                    : 6.051549             -1.305107            7.366669
| 64>   H                    : 4.404855             -0.674548            7.564045
| 65>   C                      4.619494             -5.669133            9.328870
| 66>   O                      5.415506             -5.051413            8.453942
| 67>   H                      5.431894             -4.151331            8.758755
| 68>   H                      5.132494             -6.027316            10.281299
| 69>   H                      3.793606             -5.067204            9.683257
| 70>   H                      4.142823             -6.556134            8.824996
| 71> *
| 72>
| 73>                          ****END OF INPUT****
 Total Charge           Charge          ....    0
 Multiplicity           Mult            ....    1
 Number of Electrons    NEL             ....   36
Dispersion correction           -0.001556897
FINAL SINGLE POINT ENERGY      -231.468863307990
Dispersion correction           -0.000211190
FINAL SINGLE POINT ENERGY      -115.731200932497

CARTESIAN COORDINATES (ANGSTROEM)
---------------------------------
  C      5.267570   -1.081642    8.103618
  O      4.867190   -2.109481    8.947615
  H      3.963623   -1.847875    9.170114
  H      5.623439   -0.273538    8.761835
  H      6.051549   -1.305107    7.366669
  H      4.404855   -0.674548    7.564045
  C      4.619494   -5.669133    9.328870
  O      5.415506   -5.051413    8.453942
  H      5.431894   -4.151331    8.758755
  H      5.132494   -6.027316   10.281299
  H      3.793606   -5.067204    9.683257
  H      4.142823   -6.556134    8.824996

 Multiplicity           Mult            ....    1
 Number of Electrons    NEL             ....   18
 Basis Dimension        Dim             ....  172

ORBITAL ENERGIES
----------------

  NO   OCC          E(Eh)            E(eV)
   0   2.0000     -19.235464      -523.4236
   1   2.0000     -10.312663      -280.6218
   2   2.0000      -1.171960       -31.8906
   3   2.0000      -0.787581       -21.4312
   4   2.0000      -0.633434       -17.2366
   5   2.0000      -0.546305       -14.8657
   6   2.0000      -0.536106       -14.5882
   7   2.0000      -0.431876       -11.7519
   8   2.0000      -0.370624       -10.0852
   9   0.0000       0.070183         1.9098
  10   0.0000       0.125521         3.4156
  11   0.0000       0.153986         4.1902
  12   0.0000       0.166583         4.5330
  13   0.0000       0.196318         5.3421

MULLIKEN ATOMIC CHARGES
-----------------------
   0 C :   -0.002048
   1 O :   -0.001847
   2 H :    0.000032
   3 H :    0.000042
   4 H :    0.000072
   5 H :    0.000150
   6 C :   -0.165837
   7 O :   -0.430196
   8 H :    0.314888
   9 H :    0.081541
  10 H :    0.097709
  11 H :    0.105494
Sum of atomic charges:    0.0000000

LOEWDIN ATOMIC CHARGES
----------------------
   0 C :   -0.002126
   1 O :   -0.011841
   2 H :   -0.000643
   3 H :   -0.000049
   4 H :   -0.000155
   5 H :   -0.000035
   6 C :   -0.462128
   7 O :    0.002996
   8 H :    0.178663
   9 H :    0.095074
  10 H :    0.088959
  11 H :    0.111286

  Mayer bond orders larger than 0.1
B(  6-C ,  7-O ) :   1.0196 B(  6-C ,  9-H ) :   0.9730 B(  6-C , 10-H ) :   0.9794
B(  6-C , 11-H ) :   0.9739 B(  7-O ,  8-H ) :   0.9068

Dispersion correction           -0.000218242
FINAL SINGLE POINT ENERGY      -115.729496333826

DIPOLE MOMENT
-------------
                                X             Y             Z
Electronic contribution:      1.18816       0.83202      -1.36854
Nuclear contribution   :     -1.46693      -0.43607       1.82378
                        -----------------------------------------
Total Dipole Moment    :     -0.27877       0.39595       0.45524
                        -----------------------------------------
Magnitude (a.u.)       :      0.66463
Magnitude (Debye)      :      1.68936

Rotational constants in cm-1:     4.229986     0.906455     0.871517
Rotational constants in MHz : 126811.789892 27174.831204 26127.424272

                             ****ORCA TERMINATED NORMALLY****
TOTAL RUN TIME: 0 days 0 hours 0 minutes 53 seconds 295 msec
