                         Program Version 4.1.2  - RELEASE  -
|  1> #Run DFT-D3 single point of the dimer
|  2> ! wB97X-D3 def2-TZVP TIGHTSCF CHELPG PMODEL PAL8
|  3>
|  4> %base "15-185_DFT_AB"
|  5>
|  6> %scf
|  7> MaxIter 1000
|  8> end
|  9>
| 10> * xyz 0 1
| 11>   C                      3.366093             -10.940227           -3.825466
| 12>   O                      2.868335             -11.125786           -5.126848
| 13>   H                      2.782405             -10.195988           -5.464540
| 14>   H                      4.240190             -10.271553           -3.892392
| 15>   H                      2.612489             -10.513048           -3.150601
| 16>   H                      3.802309             -11.877141           -3.413594
| 17>   C                      2.757700             -6.980673            -8.181021
| 18>   O                      2.189377             -8.202132            -7.664982
| 19>   H                      2.983104             -8.758184            -7.725552
| 20>   H                      1.987597             -6.160948            -8.253499
| 21>   H                      3.640232             -6.587683            -7.735363
| 22>   H                      3.130045             -7.106031            -9.263096
| 23> *
| 24>
| 25> #Run DFT-D3 single point of the molecule with dimer basis set
| 26> $new_job
| 27> %base "15-185_DFT_A"
| 28> ! wB97X-D3 def2-TZVP TIGHTSCF CHELPG PMODEL
| 29>
| 30> %scf
| 31> MaxIter 1000
| 32> end
| 33>
| 34> * xyz 0 1
| 35>   C                      3.366093             -10.940227           -3.825466
| 36>   O                      2.868335             -11.125786           -5.126848
| 37>   H                      2.782405             -10.195988           -5.464540
| 38>   H                      4.240190             -10.271553           -3.892392
| 39>   H                      2.612489             -10.513048           -3.150601
| 40>   H                      3.802309             -11.877141           -3.413594
| 41>   C                    : 2.757700             -6.980673            -8.181021
| 42>   O                    : 2.189377             -8.202132            -7.664982
| 43>   H                    : 2.983104             -8.758184            -7.725552
| 44>   H                    : 1.987597             -6.160948            -8.253499
| 45>   H                    : 3.640232             -6.587683            -7.735363
| 46>   H                    : 3.130045             -7.106031            -9.263096
| 47> *
| 48>
| 49> #Run DFT-D3 single point of the particle with dimer basis set
| 50> $new_job
| 51> %base "15-185_DFT_B"
| 52> ! wB97X-D3 def2-TZVP TIGHTSCF CHELPG PMODEL
| 53>
| 54> %scf
| 55> MaxIter 1000
| 56> end
| 57>
| 58> * xyz 0 1
| 59>   C                    : 3.366093             -10.940227           -3.825466
| 60>   O                    : 2.868335             -11.125786           -5.126848
| 61>   H                    : 2.782405             -10.195988           -5.464540
| 62>   H                    : 4.240190             -10.271553           -3.892392
| 63>   H                    : 2.612489             -10.513048           -3.150601
| 64>   H                    : 3.802309             -11.877141           -3.413594
| 65>   C                      2.757700             -6.980673            -8.181021
| 66>   O                      2.189377             -8.202132            -7.664982
| 67>   H                      2.983104             -8.758184            -7.725552
| 68>   H                      1.987597             -6.160948            -8.253499
| 69>   H                      3.640232             -6.587683            -7.735363
| 70>   H                      3.130045             -7.106031            -9.263096
| 71> *
| 72>
| 73>                          ****END OF INPUT****
 Total Charge           Charge          ....    0
 Multiplicity           Mult            ....    1
 Number of Electrons    NEL             ....   36
Dispersion correction           -0.001030126
FINAL SINGLE POINT ENERGY      -231.461847609084
Dispersion correction           -0.000223172
FINAL SINGLE POINT ENERGY      -115.733180319621

CARTESIAN COORDINATES (ANGSTROEM)
---------------------------------
  C      3.366093  -10.940227   -3.825466
  O      2.868335  -11.125786   -5.126848
  H      2.782405  -10.195988   -5.464540
  H      4.240190  -10.271553   -3.892392
  H      2.612489  -10.513048   -3.150601
  H      3.802309  -11.877141   -3.413594
  C      2.757700   -6.980673   -8.181021
  O      2.189377   -8.202132   -7.664982
  H      2.983104   -8.758184   -7.725552
  H      1.987597   -6.160948   -8.253499
  H      3.640232   -6.587683   -7.735363
  H      3.130045   -7.106031   -9.263096

 Multiplicity           Mult            ....    1
 Number of Electrons    NEL             ....   18
 Basis Dimension        Dim             ....  172

ORBITAL ENERGIES
----------------

  NO   OCC          E(Eh)            E(eV)
   0   2.0000     -19.242116      -523.6046
   1   2.0000     -10.322957      -280.9019
   2   2.0000      -1.136337       -30.9213
   3   2.0000      -0.791787       -21.5456
   4   2.0000      -0.610624       -16.6159
   5   2.0000      -0.527477       -14.3534
   6   2.0000      -0.521826       -14.1996
   7   2.0000      -0.450977       -12.2717
   8   2.0000      -0.375918       -10.2292
   9   0.0000       0.086857         2.3635
  10   0.0000       0.115055         3.1308
  11   0.0000       0.143885         3.9153
  12   0.0000       0.187196         5.0939
  13   0.0000       0.194233         5.2853

MULLIKEN ATOMIC CHARGES
-----------------------
   0 C :    0.000898
   1 O :    0.000626
   2 H :   -0.006659
   3 H :   -0.000123
   4 H :   -0.000066
   5 H :   -0.000004
   6 C :   -0.203242
   7 O :   -0.447601
   8 H :    0.319134
   9 H :    0.123415
  10 H :    0.115351
  11 H :    0.098272
Sum of atomic charges:    0.0000000

LOEWDIN ATOMIC CHARGES
----------------------
   0 C :   -0.000057
   1 O :   -0.000146
   2 H :   -0.004554
   3 H :   -0.000012
   4 H :   -0.000002
   5 H :   -0.000001
   6 C :   -0.389598
   7 O :   -0.090061
   8 H :    0.180781
   9 H :    0.114535
  10 H :    0.086607
  11 H :    0.102507

  Mayer bond orders larger than 0.1
B(  6-C ,  7-O ) :   1.0085 B(  6-C ,  9-H ) :   0.9752 B(  6-C , 10-H ) :   0.9621
B(  6-C , 11-H ) :   0.9781 B(  7-O ,  8-H ) :   0.8976

Dispersion correction           -0.000255397
FINAL SINGLE POINT ENERGY      -115.727255945655

DIPOLE MOMENT
-------------
                                X             Y             Z
Electronic contribution:     -0.93468      -1.57063       0.94004
Nuclear contribution   :      1.64280       1.71401      -1.17084
                        -----------------------------------------
Total Dipole Moment    :      0.70812       0.14338      -0.23080
                        -----------------------------------------
Magnitude (a.u.)       :      0.75846
Magnitude (Debye)      :      1.92786

Rotational constants in cm-1:     4.226242     0.802923     0.763595
Rotational constants in MHz : 126699.561508 24071.011248 22892.008944

                             ****ORCA TERMINATED NORMALLY****
TOTAL RUN TIME: 0 days 0 hours 1 minutes 1 seconds 851 msec
