                         Program Version 4.1.2  - RELEASE  -
|  1> #Run DFT-D3 single point of the dimer
|  2> ! wB97X-D3 def2-TZVP TIGHTSCF CHELPG PMODEL PAL8
|  3>
|  4> %base "22-171_DFT_AB"
|  5>
|  6> %scf
|  7> MaxIter 1000
|  8> end
|  9>
| 10> * xyz 0 1
| 11>   C                      -3.025032            -9.211397            -2.325317
| 12>   O                      -3.680875            -8.078894            -1.634778
| 13>   H                      -3.754466            -7.377281            -2.355568
| 14>   H                      -1.993972            -8.971833            -2.535496
| 15>   H                      -2.964528            -10.072478           -1.609892
| 16>   H                      -3.562587            -9.495450            -3.205886
| 17>   C                      -3.285381            -5.942258            -4.529122
| 18>   O                      -2.692798            -6.037381            -3.235924
| 19>   H                      -1.972267            -5.392801            -3.295113
| 20>   H                      -3.178434            -4.898310            -4.865037
| 21>   H                      -2.691440            -6.606885            -5.242967
| 22>   H                      -4.282233            -6.304589            -4.656723
| 23> *
| 24>
| 25> #Run DFT-D3 single point of the molecule with dimer basis set
| 26> $new_job
| 27> %base "22-171_DFT_A"
| 28> ! wB97X-D3 def2-TZVP TIGHTSCF CHELPG PMODEL
| 29>
| 30> %scf
| 31> MaxIter 1000
| 32> end
| 33>
| 34> * xyz 0 1
| 35>   C                      -3.025032            -9.211397            -2.325317
| 36>   O                      -3.680875            -8.078894            -1.634778
| 37>   H                      -3.754466            -7.377281            -2.355568
| 38>   H                      -1.993972            -8.971833            -2.535496
| 39>   H                      -2.964528            -10.072478           -1.609892
| 40>   H                      -3.562587            -9.495450            -3.205886
| 41>   C                    : -3.285381            -5.942258            -4.529122
| 42>   O                    : -2.692798            -6.037381            -3.235924
| 43>   H                    : -1.972267            -5.392801            -3.295113
| 44>   H                    : -3.178434            -4.898310            -4.865037
| 45>   H                    : -2.691440            -6.606885            -5.242967
| 46>   H                    : -4.282233            -6.304589            -4.656723
| 47> *
| 48>
| 49> #Run DFT-D3 single point of the particle with dimer basis set
| 50> $new_job
| 51> %base "22-171_DFT_B"
| 52> ! wB97X-D3 def2-TZVP TIGHTSCF CHELPG PMODEL
| 53>
| 54> %scf
| 55> MaxIter 1000
| 56> end
| 57>
| 58> * xyz 0 1
| 59>   C                    : -3.025032            -9.211397            -2.325317
| 60>   O                    : -3.680875            -8.078894            -1.634778
| 61>   H                    : -3.754466            -7.377281            -2.355568
| 62>   H                    : -1.993972            -8.971833            -2.535496
| 63>   H                    : -2.964528            -10.072478           -1.609892
| 64>   H                    : -3.562587            -9.495450            -3.205886
| 65>   C                      -3.285381            -5.942258            -4.529122
| 66>   O                      -2.692798            -6.037381            -3.235924
| 67>   H                      -1.972267            -5.392801            -3.295113
| 68>   H                      -3.178434            -4.898310            -4.865037
| 69>   H                      -2.691440            -6.606885            -5.242967
| 70>   H                      -4.282233            -6.304589            -4.656723
| 71> *
| 72>
| 73>                          ****END OF INPUT****
 Total Charge           Charge          ....    0
 Multiplicity           Mult            ....    1
 Number of Electrons    NEL             ....   36
Dispersion correction           -0.002021623
FINAL SINGLE POINT ENERGY      -231.464224907463
Dispersion correction           -0.000254819
FINAL SINGLE POINT ENERGY      -115.731693178662

CARTESIAN COORDINATES (ANGSTROEM)
---------------------------------
  C     -3.025032   -9.211397   -2.325317
  O     -3.680875   -8.078894   -1.634778
  H     -3.754466   -7.377281   -2.355568
  H     -1.993972   -8.971833   -2.535496
  H     -2.964528  -10.072478   -1.609892
  H     -3.562587   -9.495450   -3.205886
  C     -3.285381   -5.942258   -4.529122
  O     -2.692798   -6.037381   -3.235924
  H     -1.972267   -5.392801   -3.295113
  H     -3.178434   -4.898310   -4.865037
  H     -2.691440   -6.606885   -5.242967
  H     -4.282233   -6.304589   -4.656723

 Multiplicity           Mult            ....    1
 Number of Electrons    NEL             ....   18
 Basis Dimension        Dim             ....  172

ORBITAL ENERGIES
----------------

  NO   OCC          E(Eh)            E(eV)
   0   2.0000     -19.233646      -523.3741
   1   2.0000     -10.318883      -280.7911
   2   2.0000      -1.136371       -30.9222
   3   2.0000      -0.791742       -21.5444
   4   2.0000      -0.606849       -16.5132
   5   2.0000      -0.541182       -14.7263
   6   2.0000      -0.530537       -14.4367
   7   2.0000      -0.439756       -11.9664
   8   2.0000      -0.370052       -10.0696
   9   0.0000       0.095279         2.5927
  10   0.0000       0.125928         3.4267
  11   0.0000       0.150220         4.0877
  12   0.0000       0.185499         5.0477
  13   0.0000       0.190364         5.1801

MULLIKEN ATOMIC CHARGES
-----------------------
   0 C :    0.005246
   1 O :    0.003651
   2 H :   -0.011689
   3 H :   -0.006151
   4 H :   -0.000226
   5 H :   -0.000789
   6 C :   -0.177788
   7 O :   -0.456275
   8 H :    0.312693
   9 H :    0.108117
  10 H :    0.094836
  11 H :    0.128376
Sum of atomic charges:    0.0000000

LOEWDIN ATOMIC CHARGES
----------------------
   0 C :   -0.006765
   1 O :   -0.007247
   2 H :   -0.034386
   3 H :   -0.002682
   4 H :   -0.000076
   5 H :   -0.000178
   6 C :   -0.378298
   7 O :   -0.050718
   8 H :    0.177090
   9 H :    0.099867
  10 H :    0.102247
  11 H :    0.101146

  Mayer bond orders larger than 0.1
B(  6-C ,  7-O ) :   0.9847 B(  6-C ,  9-H ) :   0.9817 B(  6-C , 10-H ) :   0.9759
B(  6-C , 11-H ) :   0.9744 B(  7-O ,  8-H ) :   0.9000

Dispersion correction           -0.000232101
FINAL SINGLE POINT ENERGY      -115.729790148768

DIPOLE MOMENT
-------------
                                X             Y             Z
Electronic contribution:      0.46383      -0.19189       1.82601
Nuclear contribution   :     -0.27227       0.64183      -2.36716
                        -----------------------------------------
Total Dipole Moment    :      0.19157       0.44994      -0.54114
                        -----------------------------------------
Magnitude (a.u.)       :      0.72937
Magnitude (Debye)      :      1.85390

Rotational constants in cm-1:     4.204533     0.824318     0.791537
Rotational constants in MHz : 126048.717994 24712.444121 23729.694693

                             ****ORCA TERMINATED NORMALLY****
TOTAL RUN TIME: 0 days 0 hours 1 minutes 8 seconds 735 msec
