                         Program Version 4.1.2  - RELEASE  -
|  1> #Run DFT-D3 single point of the dimer
|  2> ! wB97X-D3 def2-TZVP TIGHTSCF CHELPG PMODEL PAL8
|  3>
|  4> %base "20-113_DFT_AB"
|  5>
|  6> %scf
|  7> MaxIter 1000
|  8> end
|  9>
| 10> * xyz 0 1
| 11>   C                      11.218378            -9.107412            7.618179
| 12>   O                      10.746527            -9.380473            6.350098
| 13>   H                      11.379990            -8.963582            5.761786
| 14>   H                      11.897932            -8.268738            7.736445
| 15>   H                      10.316205            -8.880650            8.214575
| 16>   H                      11.735110            -9.956797            8.001080
| 17>   C                      8.338665             -5.466422            7.264269
| 18>   O                      9.675011             -5.533234            7.796910
| 19>   H                      10.091754            -6.202308            7.263621
| 20>   H                      7.825557             -6.392799            7.377399
| 21>   H                      7.740624             -4.840618            7.877893
| 22>   H                      8.060300             -5.156455            6.205642
| 23> *
| 24>
| 25> #Run DFT-D3 single point of the molecule with dimer basis set
| 26> $new_job
| 27> %base "20-113_DFT_A"
| 28> ! wB97X-D3 def2-TZVP TIGHTSCF CHELPG PMODEL
| 29>
| 30> %scf
| 31> MaxIter 1000
| 32> end
| 33>
| 34> * xyz 0 1
| 35>   C                      11.218378            -9.107412            7.618179
| 36>   O                      10.746527            -9.380473            6.350098
| 37>   H                      11.379990            -8.963582            5.761786
| 38>   H                      11.897932            -8.268738            7.736445
| 39>   H                      10.316205            -8.880650            8.214575
| 40>   H                      11.735110            -9.956797            8.001080
| 41>   C                    : 8.338665             -5.466422            7.264269
| 42>   O                    : 9.675011             -5.533234            7.796910
| 43>   H                    : 10.091754            -6.202308            7.263621
| 44>   H                    : 7.825557             -6.392799            7.377399
| 45>   H                    : 7.740624             -4.840618            7.877893
| 46>   H                    : 8.060300             -5.156455            6.205642
| 47> *
| 48>
| 49> #Run DFT-D3 single point of the particle with dimer basis set
| 50> $new_job
| 51> %base "20-113_DFT_B"
| 52> ! wB97X-D3 def2-TZVP TIGHTSCF CHELPG PMODEL
| 53>
| 54> %scf
| 55> MaxIter 1000
| 56> end
| 57>
| 58> * xyz 0 1
| 59>   C                    : 11.218378            -9.107412            7.618179
| 60>   O                    : 10.746527            -9.380473            6.350098
| 61>   H                    : 11.379990            -8.963582            5.761786
| 62>   H                    : 11.897932            -8.268738            7.736445
| 63>   H                    : 10.316205            -8.880650            8.214575
| 64>   H                    : 11.735110            -9.956797            8.001080
| 65>   C                      8.338665             -5.466422            7.264269
| 66>   O                      9.675011             -5.533234            7.796910
| 67>   H                      10.091754            -6.202308            7.263621
| 68>   H                      7.825557             -6.392799            7.377399
| 69>   H                      7.740624             -4.840618            7.877893
| 70>   H                      8.060300             -5.156455            6.205642
| 71> *
| 72>
| 73>                          ****END OF INPUT****
 Total Charge           Charge          ....    0
 Multiplicity           Mult            ....    1
 Number of Electrons    NEL             ....   36
Dispersion correction           -0.001516223
FINAL SINGLE POINT ENERGY      -231.460447239821
Dispersion correction           -0.000222022
FINAL SINGLE POINT ENERGY      -115.732275705799

CARTESIAN COORDINATES (ANGSTROEM)
---------------------------------
  C     11.218378   -9.107412    7.618179
  O     10.746527   -9.380473    6.350098
  H     11.379990   -8.963582    5.761786
  H     11.897932   -8.268738    7.736445
  H     10.316205   -8.880650    8.214575
  H     11.735110   -9.956797    8.001080
  C      8.338665   -5.466422    7.264269
  O      9.675011   -5.533234    7.796910
  H     10.091754   -6.202308    7.263621
  H      7.825557   -6.392799    7.377399
  H      7.740624   -4.840618    7.877893
  H      8.060300   -5.156455    6.205642

 Multiplicity           Mult            ....    1
 Number of Electrons    NEL             ....   18
 Basis Dimension        Dim             ....  172

ORBITAL ENERGIES
----------------

  NO   OCC          E(Eh)            E(eV)
   0   2.0000     -19.240064      -523.5488
   1   2.0000     -10.313347      -280.6404
   2   2.0000      -1.137465       -30.9520
   3   2.0000      -0.803312       -21.8592
   4   2.0000      -0.612203       -16.6589
   5   2.0000      -0.531711       -14.4686
   6   2.0000      -0.524927       -14.2840
   7   2.0000      -0.444764       -12.1026
   8   2.0000      -0.379939       -10.3387
   9   0.0000       0.072753         1.9797
  10   0.0000       0.132803         3.6138
  11   0.0000       0.145300         3.9538
  12   0.0000       0.162065         4.4100
  13   0.0000       0.182857         4.9758

MULLIKEN ATOMIC CHARGES
-----------------------
   0 C :   -0.003111
   1 O :    0.000199
   2 H :   -0.000013
   3 H :    0.000335
   4 H :   -0.001225
   5 H :   -0.000365
   6 C :   -0.187677
   7 O :   -0.455127
   8 H :    0.313738
   9 H :    0.111206
  10 H :    0.120778
  11 H :    0.101262
Sum of atomic charges:   -0.0000000

LOEWDIN ATOMIC CHARGES
----------------------
   0 C :   -0.003667
   1 O :   -0.000110
   2 H :   -0.000120
   3 H :   -0.000691
   4 H :   -0.001265
   5 H :   -0.000078
   6 C :   -0.382126
   7 O :   -0.074017
   8 H :    0.164832
   9 H :    0.091107
  10 H :    0.101969
  11 H :    0.104166

  Mayer bond orders larger than 0.1
B(  6-C ,  7-O ) :   1.0133 B(  6-C ,  9-H ) :   0.9768 B(  6-C , 10-H ) :   0.9792
B(  6-C , 11-H ) :   0.9652 B(  7-O ,  8-H ) :   0.9070

Dispersion correction           -0.000280649
FINAL SINGLE POINT ENERGY      -115.726628269686

DIPOLE MOMENT
-------------
                                X             Y             Z
Electronic contribution:      1.90107       0.06966       0.76427
Nuclear contribution   :     -2.19611      -0.47078      -1.26666
                        -----------------------------------------
Total Dipole Moment    :     -0.29504      -0.40112      -0.50239
                        -----------------------------------------
Magnitude (a.u.)       :      0.70734
Magnitude (Debye)      :      1.79793

Rotational constants in cm-1:     4.610289     0.792873     0.766457
Rotational constants in MHz : 138212.973113 23769.744519 22977.796981

                             ****ORCA TERMINATED NORMALLY****
TOTAL RUN TIME: 0 days 0 hours 1 minutes 5 seconds 496 msec
