                         Program Version 4.1.2  - RELEASE  -
|  1> #Run DFT-D3 single point of the dimer
|  2> ! wB97X-D3 def2-TZVP TIGHTSCF CHELPG PMODEL PAL8
|  3>
|  4> %base "11-193_DFT_AB"
|  5>
|  6> %scf
|  7> MaxIter 1000
|  8> end
|  9>
| 10> * xyz 0 1
| 11>   C                      -6.019101            2.616649             10.195674
| 12>   O                      -6.610280            3.781339             10.632857
| 13>   H                      -6.158912            4.555612             10.232745
| 14>   H                      -6.242186            2.356636             9.127761
| 15>   H                      -4.924229            2.645037             10.178530
| 16>   H                      -6.300459            1.755691             10.799964
| 17>   C                      -5.918653            5.943443             7.309393
| 18>   O                      -5.397078            5.313272             8.504120
| 19>   H                      -4.765617            4.649269             8.200209
| 20>   H                      -6.454968            6.862204             7.586693
| 21>   H                      -5.096273            6.137884             6.604447
| 22>   H                      -6.605557            5.235356             6.785779
| 23> *
| 24>
| 25> #Run DFT-D3 single point of the molecule with dimer basis set
| 26> $new_job
| 27> %base "11-193_DFT_A"
| 28> ! wB97X-D3 def2-TZVP TIGHTSCF CHELPG PMODEL
| 29>
| 30> %scf
| 31> MaxIter 1000
| 32> end
| 33>
| 34> * xyz 0 1
| 35>   C                      -6.019101            2.616649             10.195674
| 36>   O                      -6.610280            3.781339             10.632857
| 37>   H                      -6.158912            4.555612             10.232745
| 38>   H                      -6.242186            2.356636             9.127761
| 39>   H                      -4.924229            2.645037             10.178530
| 40>   H                      -6.300459            1.755691             10.799964
| 41>   C                    : -5.918653            5.943443             7.309393
| 42>   O                    : -5.397078            5.313272             8.504120
| 43>   H                    : -4.765617            4.649269             8.200209
| 44>   H                    : -6.454968            6.862204             7.586693
| 45>   H                    : -5.096273            6.137884             6.604447
| 46>   H                    : -6.605557            5.235356             6.785779
| 47> *
| 48>
| 49> #Run DFT-D3 single point of the particle with dimer basis set
| 50> $new_job
| 51> %base "11-193_DFT_B"
| 52> ! wB97X-D3 def2-TZVP TIGHTSCF CHELPG PMODEL
| 53>
| 54> %scf
| 55> MaxIter 1000
| 56> end
| 57>
| 58> * xyz 0 1
| 59>   C                    : -6.019101            2.616649             10.195674
| 60>   O                    : -6.610280            3.781339             10.632857
| 61>   H                    : -6.158912            4.555612             10.232745
| 62>   H                    : -6.242186            2.356636             9.127761
| 63>   H                    : -4.924229            2.645037             10.178530
| 64>   H                    : -6.300459            1.755691             10.799964
| 65>   C                      -5.918653            5.943443             7.309393
| 66>   O                      -5.397078            5.313272             8.504120
| 67>   H                      -4.765617            4.649269             8.200209
| 68>   H                      -6.454968            6.862204             7.586693
| 69>   H                      -5.096273            6.137884             6.604447
| 70>   H                      -6.605557            5.235356             6.785779
| 71> *
| 72>
| 73>                          ****END OF INPUT****
 Total Charge           Charge          ....    0
 Multiplicity           Mult            ....    1
 Number of Electrons    NEL             ....   36
Dispersion correction           -0.001936580
FINAL SINGLE POINT ENERGY      -231.477424780724
Dispersion correction           -0.000246652
FINAL SINGLE POINT ENERGY      -115.734457677541

CARTESIAN COORDINATES (ANGSTROEM)
---------------------------------
  C     -6.019101    2.616649   10.195674
  O     -6.610280    3.781339   10.632857
  H     -6.158912    4.555612   10.232745
  H     -6.242186    2.356636    9.127761
  H     -4.924229    2.645037   10.178530
  H     -6.300459    1.755691   10.799964
  C     -5.918653    5.943443    7.309393
  O     -5.397078    5.313272    8.504120
  H     -4.765617    4.649269    8.200209
  H     -6.454968    6.862204    7.586693
  H     -5.096273    6.137884    6.604447
  H     -6.605557    5.235356    6.785779

 Multiplicity           Mult            ....    1
 Number of Electrons    NEL             ....   18
 Basis Dimension        Dim             ....  172

ORBITAL ENERGIES
----------------

  NO   OCC          E(Eh)            E(eV)
   0   2.0000     -19.231211      -523.3079
   1   2.0000     -10.320735      -280.8415
   2   2.0000      -1.126816       -30.6622
   3   2.0000      -0.792447       -21.5636
   4   2.0000      -0.605153       -16.4671
   5   2.0000      -0.533549       -14.5186
   6   2.0000      -0.525499       -14.2996
   7   2.0000      -0.441097       -12.0029
   8   2.0000      -0.372645       -10.1402
   9   0.0000       0.089125         2.4252
  10   0.0000       0.129030         3.5111
  11   0.0000       0.154156         4.1948
  12   0.0000       0.182157         4.9567
  13   0.0000       0.187919         5.1135

MULLIKEN ATOMIC CHARGES
-----------------------
   0 C :   -0.009304
   1 O :    0.003316
   2 H :   -0.006334
   3 H :   -0.002628
   4 H :    0.000156
   5 H :   -0.000940
   6 C :   -0.173916
   7 O :   -0.464217
   8 H :    0.314208
   9 H :    0.127133
  10 H :    0.108254
  11 H :    0.104272
Sum of atomic charges:    0.0000000

LOEWDIN ATOMIC CHARGES
----------------------
   0 C :   -0.010529
   1 O :   -0.005764
   2 H :   -0.033849
   3 H :   -0.002175
   4 H :   -0.000938
   5 H :   -0.000208
   6 C :   -0.362204
   7 O :   -0.062681
   8 H :    0.171433
   9 H :    0.110231
  10 H :    0.097915
  11 H :    0.098769

  Mayer bond orders larger than 0.1
B(  6-C ,  7-O ) :   0.9893 B(  6-C ,  9-H ) :   0.9734 B(  6-C , 10-H ) :   0.9755
B(  6-C , 11-H ) :   0.9711 B(  7-O ,  8-H ) :   0.8982

Dispersion correction           -0.000242667
FINAL SINGLE POINT ENERGY      -115.735820630987

DIPOLE MOMENT
-------------
                                X             Y             Z
Electronic contribution:      0.54949      -0.58019       1.58654
Nuclear contribution   :     -0.35691       0.44741      -2.27935
                        -----------------------------------------
Total Dipole Moment    :      0.19258      -0.13278      -0.69281
                        -----------------------------------------
Magnitude (a.u.)       :      0.73123
Magnitude (Debye)      :      1.85865

Rotational constants in cm-1:     4.130387     0.807051     0.772933
Rotational constants in MHz : 123825.891666 24194.768878 23171.943275

                             ****ORCA TERMINATED NORMALLY****
TOTAL RUN TIME: 0 days 0 hours 1 minutes 15 seconds 377 msec
