                         Program Version 4.1.2  - RELEASE  -
|  1> #Run DFT-D3 single point of the dimer
|  2> ! wB97X-D3 def2-TZVP TIGHTSCF CHELPG PMODEL PAL8
|  3>
|  4> %base "2-177_DFT_AB"
|  5>
|  6> %scf
|  7> MaxIter 1000
|  8> end
|  9>
| 10> * xyz 0 1
| 11>   C                      1.478229             4.723334             1.853045
| 12>   O                      2.137860             3.740740             0.987973
| 13>   H                      1.603205             2.908610             1.102617
| 14>   H                      2.125817             5.126152             2.564378
| 15>   H                      1.034596             5.532654             1.227298
| 16>   H                      0.771103             4.272160             2.550989
| 17>   C                      1.490614             -0.519304            -2.791803
| 18>   O                      1.353212             0.173385             -1.530455
| 19>   H                      0.425567             0.117778             -1.271784
| 20>   H                      1.321812             0.217613             -3.633153
| 21>   H                      2.521620             -0.902973            -2.950547
| 22>   H                      0.834232             -1.369307            -2.838309
| 23> *
| 24>
| 25> #Run DFT-D3 single point of the molecule with dimer basis set
| 26> $new_job
| 27> %base "2-177_DFT_A"
| 28> ! wB97X-D3 def2-TZVP TIGHTSCF CHELPG PMODEL
| 29>
| 30> %scf
| 31> MaxIter 1000
| 32> end
| 33>
| 34> * xyz 0 1
| 35>   C                      1.478229             4.723334             1.853045
| 36>   O                      2.137860             3.740740             0.987973
| 37>   H                      1.603205             2.908610             1.102617
| 38>   H                      2.125817             5.126152             2.564378
| 39>   H                      1.034596             5.532654             1.227298
| 40>   H                      0.771103             4.272160             2.550989
| 41>   C                    : 1.490614             -0.519304            -2.791803
| 42>   O                    : 1.353212             0.173385             -1.530455
| 43>   H                    : 0.425567             0.117778             -1.271784
| 44>   H                    : 1.321812             0.217613             -3.633153
| 45>   H                    : 2.521620             -0.902973            -2.950547
| 46>   H                    : 0.834232             -1.369307            -2.838309
| 47> *
| 48>
| 49> #Run DFT-D3 single point of the particle with dimer basis set
| 50> $new_job
| 51> %base "2-177_DFT_B"
| 52> ! wB97X-D3 def2-TZVP TIGHTSCF CHELPG PMODEL
| 53>
| 54> %scf
| 55> MaxIter 1000
| 56> end
| 57>
| 58> * xyz 0 1
| 59>   C                    : 1.478229             4.723334             1.853045
| 60>   O                    : 2.137860             3.740740             0.987973
| 61>   H                    : 1.603205             2.908610             1.102617
| 62>   H                    : 2.125817             5.126152             2.564378
| 63>   H                    : 1.034596             5.532654             1.227298
| 64>   H                    : 0.771103             4.272160             2.550989
| 65>   C                      1.490614             -0.519304            -2.791803
| 66>   O                      1.353212             0.173385             -1.530455
| 67>   H                      0.425567             0.117778             -1.271784
| 68>   H                      1.321812             0.217613             -3.633153
| 69>   H                      2.521620             -0.902973            -2.950547
| 70>   H                      0.834232             -1.369307            -2.838309
| 71> *
| 72>
| 73>                          ****END OF INPUT****
 Total Charge           Charge          ....    0
 Multiplicity           Mult            ....    1
 Number of Electrons    NEL             ....   36
Dispersion correction           -0.000729375
FINAL SINGLE POINT ENERGY      -231.460815185351
Dispersion correction           -0.000268035
FINAL SINGLE POINT ENERGY      -115.727155449121

CARTESIAN COORDINATES (ANGSTROEM)
---------------------------------
  C      1.478229    4.723334    1.853045
  O      2.137860    3.740740    0.987973
  H      1.603205    2.908610    1.102617
  H      2.125817    5.126152    2.564378
  H      1.034596    5.532654    1.227298
  H      0.771103    4.272160    2.550989
  C      1.490614   -0.519304   -2.791803
  O      1.353212    0.173385   -1.530455
  H      0.425567    0.117778   -1.271784
  H      1.321812    0.217613   -3.633153
  H      2.521620   -0.902973   -2.950547
  H      0.834232   -1.369307   -2.838309

 Multiplicity           Mult            ....    1
 Number of Electrons    NEL             ....   18
 Basis Dimension        Dim             ....  172

ORBITAL ENERGIES
----------------

  NO   OCC          E(Eh)            E(eV)
   0   2.0000     -19.230285      -523.2827
   1   2.0000     -10.320027      -280.8222
   2   2.0000      -1.126187       -30.6451
   3   2.0000      -0.793421       -21.5901
   4   2.0000      -0.603757       -16.4291
   5   2.0000      -0.537182       -14.6175
   6   2.0000      -0.524255       -14.2657
   7   2.0000      -0.434420       -11.8212
   8   2.0000      -0.373446       -10.1620
   9   0.0000       0.092586         2.5194
  10   0.0000       0.114057         3.1037
  11   0.0000       0.148323         4.0361
  12   0.0000       0.180832         4.9207
  13   0.0000       0.197677         5.3791

MULLIKEN ATOMIC CHARGES
-----------------------
   0 C :    0.000054
   1 O :    0.000032
   2 H :   -0.001064
   3 H :   -0.000000
   4 H :   -0.000000
   5 H :   -0.000000
   6 C :   -0.167041
   7 O :   -0.479142
   8 H :    0.315366
   9 H :    0.103781
  10 H :    0.118401
  11 H :    0.109613
Sum of atomic charges:   -0.0000000

LOEWDIN ATOMIC CHARGES
----------------------
   0 C :   -0.000005
   1 O :   -0.000063
   2 H :   -0.000669
   3 H :   -0.000000
   4 H :   -0.000000
   5 H :   -0.000001
   6 C :   -0.367534
   7 O :   -0.104907
   8 H :    0.169170
   9 H :    0.103101
  10 H :    0.109482
  11 H :    0.091425

  Mayer bond orders larger than 0.1
B(  6-C ,  7-O ) :   0.9991 B(  6-C ,  9-H ) :   0.9755 B(  6-C , 10-H ) :   0.9724
B(  6-C , 11-H ) :   0.9783 B(  7-O ,  8-H ) :   0.8993

Dispersion correction           -0.000258853
FINAL SINGLE POINT ENERGY      -115.733749813016

DIPOLE MOMENT
-------------
                                X             Y             Z
Electronic contribution:     -0.07805       0.82814       1.61657
Nuclear contribution   :     -0.44783      -1.17780      -1.96610
                        -----------------------------------------
Total Dipole Moment    :     -0.52587      -0.34966      -0.34953
                        -----------------------------------------
Magnitude (a.u.)       :      0.72179
Magnitude (Debye)      :      1.83463

Rotational constants in cm-1:     4.210736     0.796951     0.773742
Rotational constants in MHz : 126234.678674 23891.978308 23196.205962

                             ****ORCA TERMINATED NORMALLY****
TOTAL RUN TIME: 0 days 0 hours 5 minutes 28 seconds 460 msec
