                         Program Version 4.1.2  - RELEASE  -
|  1> #Run DFT-D3 single point of the dimer
|  2> ! wB97X-D3 def2-TZVP TIGHTSCF CHELPG PMODEL PAL8
|  3>
|  4> %base "22-81_DFT_AB"
|  5>
|  6> %scf
|  7> MaxIter 1000
|  8> end
|  9>
| 10> * xyz 0 1
| 11>   C                      3.729332             11.109176            -10.482602
| 12>   O                      4.755832             10.660201            -11.309026
| 13>   H                      4.517446             9.772490             -11.680235
| 14>   H                      2.665925             11.084278            -10.849776
| 15>   H                      3.787291             10.735170            -9.479246
| 16>   H                      3.875799             12.195148            -10.205744
| 17>   C                      9.131496             8.642149             -10.889142
| 18>   O                      8.416454             7.496642             -11.255507
| 19>   H                      7.910878             7.238208             -10.442181
| 20>   H                      8.768745             9.228676             -10.007910
| 21>   H                      10.229135            8.312411             -10.763482
| 22>   H                      9.056931             9.478766             -11.595643
| 23> *
| 24>
| 25> #Run DFT-D3 single point of the molecule with dimer basis set
| 26> $new_job
| 27> %base "22-81_DFT_A"
| 28> ! wB97X-D3 def2-TZVP TIGHTSCF CHELPG PMODEL
| 29>
| 30> %scf
| 31> MaxIter 1000
| 32> end
| 33>
| 34> * xyz 0 1
| 35>   C                      3.729332             11.109176            -10.482602
| 36>   O                      4.755832             10.660201            -11.309026
| 37>   H                      4.517446             9.772490             -11.680235
| 38>   H                      2.665925             11.084278            -10.849776
| 39>   H                      3.787291             10.735170            -9.479246
| 40>   H                      3.875799             12.195148            -10.205744
| 41>   C                    : 9.131496             8.642149             -10.889142
| 42>   O                    : 8.416454             7.496642             -11.255507
| 43>   H                    : 7.910878             7.238208             -10.442181
| 44>   H                    : 8.768745             9.228676             -10.007910
| 45>   H                    : 10.229135            8.312411             -10.763482
| 46>   H                    : 9.056931             9.478766             -11.595643
| 47> *
| 48>
| 49> #Run DFT-D3 single point of the particle with dimer basis set
| 50> $new_job
| 51> %base "22-81_DFT_B"
| 52> ! wB97X-D3 def2-TZVP TIGHTSCF CHELPG PMODEL
| 53>
| 54> %scf
| 55> MaxIter 1000
| 56> end
| 57>
| 58> * xyz 0 1
| 59>   C                    : 3.729332             11.109176            -10.482602
| 60>   O                    : 4.755832             10.660201            -11.309026
| 61>   H                    : 4.517446             9.772490             -11.680235
| 62>   H                    : 2.665925             11.084278            -10.849776
| 63>   H                    : 3.787291             10.735170            -9.479246
| 64>   H                    : 3.875799             12.195148            -10.205744
| 65>   C                      9.131496             8.642149             -10.889142
| 66>   O                      8.416454             7.496642             -11.255507
| 67>   H                      7.910878             7.238208             -10.442181
| 68>   H                      8.768745             9.228676             -10.007910
| 69>   H                      10.229135            8.312411             -10.763482
| 70>   H                      9.056931             9.478766             -11.595643
| 71> *
| 72>
| 73>                          ****END OF INPUT****
 Total Charge           Charge          ....    0
 Multiplicity           Mult            ....    1
 Number of Electrons    NEL             ....   36
Dispersion correction           -0.000778346
FINAL SINGLE POINT ENERGY      -231.455789435997
Dispersion correction           -0.000276529
FINAL SINGLE POINT ENERGY      -115.728842542087

CARTESIAN COORDINATES (ANGSTROEM)
---------------------------------
  C      3.729332   11.109176  -10.482602
  O      4.755832   10.660201  -11.309026
  H      4.517446    9.772490  -11.680235
  H      2.665925   11.084278  -10.849776
  H      3.787291   10.735170   -9.479246
  H      3.875799   12.195148  -10.205744
  C      9.131496    8.642149  -10.889142
  O      8.416454    7.496642  -11.255507
  H      7.910878    7.238208  -10.442181
  H      8.768745    9.228676  -10.007910
  H     10.229135    8.312411  -10.763482
  H      9.056931    9.478766  -11.595643

 Multiplicity           Mult            ....    1
 Number of Electrons    NEL             ....   18
 Basis Dimension        Dim             ....  172

ORBITAL ENERGIES
----------------

  NO   OCC          E(Eh)            E(eV)
   0   2.0000     -19.237373      -523.4755
   1   2.0000     -10.320673      -280.8398
   2   2.0000      -1.139076       -30.9958
   3   2.0000      -0.786940       -21.4137
   4   2.0000      -0.612876       -16.6772
   5   2.0000      -0.542593       -14.7647
   6   2.0000      -0.519565       -14.1381
   7   2.0000      -0.427987       -11.6461
   8   2.0000      -0.373216       -10.1557
   9   0.0000       0.083185         2.2636
  10   0.0000       0.109781         2.9873
  11   0.0000       0.148071         4.0292
  12   0.0000       0.163986         4.4623
  13   0.0000       0.187894         5.1129

MULLIKEN ATOMIC CHARGES
-----------------------
   0 C :    0.000025
   1 O :    0.000006
   2 H :   -0.000247
   3 H :   -0.000001
   4 H :   -0.000004
   5 H :   -0.000000
   6 C :   -0.183861
   7 O :   -0.459080
   8 H :    0.322474
   9 H :    0.104370
  10 H :    0.104891
  11 H :    0.111428
Sum of atomic charges:    0.0000000

LOEWDIN ATOMIC CHARGES
----------------------
   0 C :   -0.000006
   1 O :   -0.000019
   2 H :   -0.000154
   3 H :   -0.000000
   4 H :   -0.000001
   5 H :   -0.000001
   6 C :   -0.423493
   7 O :   -0.078881
   8 H :    0.193063
   9 H :    0.100018
  10 H :    0.108438
  11 H :    0.101035

  Mayer bond orders larger than 0.1
B(  6-C ,  7-O ) :   1.0126 B(  6-C ,  9-H ) :   0.9743 B(  6-C , 10-H ) :   0.9795
B(  6-C , 11-H ) :   0.9673 B(  7-O ,  8-H ) :   0.8934

Dispersion correction           -0.000264773
FINAL SINGLE POINT ENERGY      -115.726240440428

DIPOLE MOMENT
-------------
                                X             Y             Z
Electronic contribution:     -0.97427      -1.60002      -0.64604
Nuclear contribution   :      0.87528       1.88341       1.29634
                        -----------------------------------------
Total Dipole Moment    :     -0.09899       0.28339       0.65031
                        -----------------------------------------
Magnitude (a.u.)       :      0.71624
Magnitude (Debye)      :      1.82054

Rotational constants in cm-1:     4.143862     0.827364     0.806552
Rotational constants in MHz : 124229.852338 24803.742407 24179.815367

                             ****ORCA TERMINATED NORMALLY****
TOTAL RUN TIME: 0 days 0 hours 0 minutes 51 seconds 699 msec
