                         Program Version 4.1.2  - RELEASE  -
|  1> #Run DFT-D3 single point of the dimer
|  2> ! wB97X-D3 def2-TZVP TIGHTSCF  CHELPG PAL8
|  3>
|  4> %base "84_charges"
|  5>
|  6> %scf
|  7> MaxIter 1000
|  8> end
|  9> %output
| 10>   Print[ P_Mayer ] 1
| 11>   Print[ P_NatPop ] 1
| 12>   Print[ P_Hirshfeld ] 1
| 13>   Print[ P_Mulliken ] 1
| 14>   Print [ P_Loewdin ] 1
| 15> end
| 16>
| 17> * xyz 0 1
| 18>   C                      -1.094180            2.603089             9.357593
| 19>   O                      -0.497803            3.594599             10.147421
| 20>   H                      0.392165             3.638094             9.905881
| 21>   H                      -0.866021            2.497458             8.285564
| 22>   H                      -0.795365            1.623784             9.770884
| 23>   H                      -2.165425            2.618578             9.407741
| 24> *
| 25>
| 26>                          ****END OF INPUT****

CARTESIAN COORDINATES (ANGSTROEM)
---------------------------------
  C     -1.094180    2.603089    9.357593
  O     -0.497803    3.594599   10.147421
  H      0.392165    3.638094    9.905881
  H     -0.866021    2.497458    8.285564
  H     -0.795365    1.623784    9.770884
  H     -2.165425    2.618578    9.407741

 Total Charge           Charge          ....    0
 Multiplicity           Mult            ....    1
 Number of Electrons    NEL             ....   18
 Basis Dimension        Dim             ....   86

ORBITAL ENERGIES
----------------

  NO   OCC          E(Eh)            E(eV)
   0   2.0000     -19.231081      -523.3043
   1   2.0000     -10.311877      -280.6004
   2   2.0000      -1.150312       -31.3016
   3   2.0000      -0.801416       -21.8076
   4   2.0000      -0.622219       -16.9314
   5   2.0000      -0.540285       -14.7019
   6   2.0000      -0.527797       -14.3621
   7   2.0000      -0.440368       -11.9830
   8   2.0000      -0.372436       -10.1345
   9   0.0000       0.120106         3.2682
  10   0.0000       0.153680         4.1818
  11   0.0000       0.198884         5.4119
  12   0.0000       0.209772         5.7082
  13   0.0000       0.234758         6.3881

MULLIKEN ATOMIC CHARGES
-----------------------
   0 C :   -0.173703
   1 O :   -0.457768
   2 H :    0.309464
   3 H :    0.104130
   4 H :    0.094250
   5 H :    0.123627
Sum of atomic charges:   -0.0000000

LOEWDIN ATOMIC CHARGES
----------------------
   0 C :   -0.399939
   1 O :   -0.043531
   2 H :    0.147787
   3 H :    0.096066
   4 H :    0.095969
   5 H :    0.103648

  Mayer bond orders larger than 0.1
B(  0-C ,  1-O ) :   1.0036 B(  0-C ,  3-H ) :   0.9667 B(  0-C ,  4-H ) :   0.9862
B(  0-C ,  5-H ) :   0.9742 B(  1-O ,  2-H ) :   0.9076

Dispersion correction           -0.000247805
FINAL SINGLE POINT ENERGY      -115.730746034768

DIPOLE MOMENT
-------------
                                X             Y             Z
Electronic contribution:      0.67908       1.52883       1.05844
Nuclear contribution   :     -0.34088      -1.87876      -1.52354
                        -----------------------------------------
Total Dipole Moment    :      0.33819      -0.34992      -0.46510
                        -----------------------------------------
Magnitude (a.u.)       :      0.67315
Magnitude (Debye)      :      1.71102

Rotational constants in cm-1:     4.551385     0.833885     0.805028
Rotational constants in MHz : 136447.091299 24999.252118 24134.133320

                             ****ORCA TERMINATED NORMALLY****
TOTAL RUN TIME: 0 days 0 hours 0 minutes 41 seconds 66 msec
