                         Program Version 4.1.2  - RELEASE  -
|  1> #Run DFT-D3 single point of the dimer
|  2> ! wB97X-D3 def2-TZVP TIGHTSCF CHELPG PMODEL PAL8
|  3>
|  4> %base "20-41_DFT_AB"
|  5>
|  6> %scf
|  7> MaxIter 1000
|  8> end
|  9>
| 10> * xyz 0 1
| 11>   C                      -6.460874            11.317236            1.150653
| 12>   O                      -5.386241            11.510456            1.972449
| 13>   H                      -4.744983            10.797700            1.904435
| 14>   H                      -6.718436            10.244920            1.063984
| 15>   H                      -7.330148            11.972840            1.477804
| 16>   H                      -6.265406            11.552220            0.117566
| 17>   C                      -4.286633            7.826120             1.492004
| 18>   O                      -5.094304            8.659068             2.319935
| 19>   H                      -6.047964            8.445136             2.344196
| 20>   H                      -4.777304            7.440605             0.628035
| 21>   H                      -3.385954            8.291319             1.218376
| 22>   H                      -3.951033            6.945951             1.997395
| 23> *
| 24>
| 25> #Run DFT-D3 single point of the molecule with dimer basis set
| 26> $new_job
| 27> %base "20-41_DFT_A"
| 28> ! wB97X-D3 def2-TZVP TIGHTSCF CHELPG PMODEL
| 29>
| 30> %scf
| 31> MaxIter 1000
| 32> end
| 33>
| 34> * xyz 0 1
| 35>   C                      -6.460874            11.317236            1.150653
| 36>   O                      -5.386241            11.510456            1.972449
| 37>   H                      -4.744983            10.797700            1.904435
| 38>   H                      -6.718436            10.244920            1.063984
| 39>   H                      -7.330148            11.972840            1.477804
| 40>   H                      -6.265406            11.552220            0.117566
| 41>   C                    : -4.286633            7.826120             1.492004
| 42>   O                    : -5.094304            8.659068             2.319935
| 43>   H                    : -6.047964            8.445136             2.344196
| 44>   H                    : -4.777304            7.440605             0.628035
| 45>   H                    : -3.385954            8.291319             1.218376
| 46>   H                    : -3.951033            6.945951             1.997395
| 47> *
| 48>
| 49> #Run DFT-D3 single point of the particle with dimer basis set
| 50> $new_job
| 51> %base "20-41_DFT_B"
| 52> ! wB97X-D3 def2-TZVP TIGHTSCF CHELPG PMODEL
| 53>
| 54> %scf
| 55> MaxIter 1000
| 56> end
| 57>
| 58> * xyz 0 1
| 59>   C                    : -6.460874            11.317236            1.150653
| 60>   O                    : -5.386241            11.510456            1.972449
| 61>   H                    : -4.744983            10.797700            1.904435
| 62>   H                    : -6.718436            10.244920            1.063984
| 63>   H                    : -7.330148            11.972840            1.477804
| 64>   H                    : -6.265406            11.552220            0.117566
| 65>   C                      -4.286633            7.826120             1.492004
| 66>   O                      -5.094304            8.659068             2.319935
| 67>   H                      -6.047964            8.445136             2.344196
| 68>   H                      -4.777304            7.440605             0.628035
| 69>   H                      -3.385954            8.291319             1.218376
| 70>   H                      -3.951033            6.945951             1.997395
| 71> *
| 72>
| 73>                          ****END OF INPUT****
 Total Charge           Charge          ....    0
 Multiplicity           Mult            ....    1
 Number of Electrons    NEL             ....   36
Dispersion correction           -0.002059638
FINAL SINGLE POINT ENERGY      -231.467533193290
Dispersion correction           -0.000234421
FINAL SINGLE POINT ENERGY      -115.732001523803

CARTESIAN COORDINATES (ANGSTROEM)
---------------------------------
  C     -6.460874   11.317236    1.150653
  O     -5.386241   11.510456    1.972449
  H     -4.744983   10.797700    1.904435
  H     -6.718436   10.244920    1.063984
  H     -7.330148   11.972840    1.477804
  H     -6.265406   11.552220    0.117566
  C     -4.286633    7.826120    1.492004
  O     -5.094304    8.659068    2.319935
  H     -6.047964    8.445136    2.344196
  H     -4.777304    7.440605    0.628035
  H     -3.385954    8.291319    1.218376
  H     -3.951033    6.945951    1.997395

 Multiplicity           Mult            ....    1
 Number of Electrons    NEL             ....   18
 Basis Dimension        Dim             ....  172

ORBITAL ENERGIES
----------------

  NO   OCC          E(Eh)            E(eV)
   0   2.0000     -19.231135      -523.3058
   1   2.0000     -10.303887      -280.3830
   2   2.0000      -1.124732       -30.6055
   3   2.0000      -0.808214       -21.9926
   4   2.0000      -0.614551       -16.7228
   5   2.0000      -0.538007       -14.6399
   6   2.0000      -0.531707       -14.4685
   7   2.0000      -0.430839       -11.7237
   8   2.0000      -0.371990       -10.1224
   9   0.0000       0.092732         2.5234
  10   0.0000       0.133915         3.6440
  11   0.0000       0.149110         4.0575
  12   0.0000       0.179899         4.8953
  13   0.0000       0.201166         5.4740

MULLIKEN ATOMIC CHARGES
-----------------------
   0 C :    0.008750
   1 O :    0.002797
   2 H :   -0.006394
   3 H :   -0.020334
   4 H :   -0.000544
   5 H :   -0.001421
   6 C :   -0.149902
   7 O :   -0.484738
   8 H :    0.322848
   9 H :    0.104882
  10 H :    0.122677
  11 H :    0.101379
Sum of atomic charges:   -0.0000000

LOEWDIN ATOMIC CHARGES
----------------------
   0 C :   -0.011161
   1 O :   -0.006598
   2 H :   -0.021296
   3 H :   -0.010231
   4 H :   -0.000159
   5 H :   -0.000216
   6 C :   -0.363239
   7 O :   -0.053070
   8 H :    0.179417
   9 H :    0.092328
  10 H :    0.100471
  11 H :    0.093753

  Mayer bond orders larger than 0.1
B(  6-C ,  7-O ) :   0.9961 B(  6-C ,  9-H ) :   0.9786 B(  6-C , 10-H ) :   0.9778
B(  6-C , 11-H ) :   0.9767 B(  7-O ,  8-H ) :   0.8868

Dispersion correction           -0.000266828
FINAL SINGLE POINT ENERGY      -115.731015001329

DIPOLE MOMENT
-------------
                                X             Y             Z
Electronic contribution:     -0.93392       1.18322       1.02721
Nuclear contribution   :      0.67487      -1.70333      -1.36491
                        -----------------------------------------
Total Dipole Moment    :     -0.25905      -0.52011      -0.33770
                        -----------------------------------------
Magnitude (a.u.)       :      0.67206
Magnitude (Debye)      :      1.70824

Rotational constants in cm-1:     4.717834     0.809509     0.777816
Rotational constants in MHz : 141437.105590 24268.470088 23318.340984

                             ****ORCA TERMINATED NORMALLY****
TOTAL RUN TIME: 0 days 0 hours 1 minutes 9 seconds 352 msec
