                         Program Version 4.1.2  - RELEASE  -
|  1> #Run DFT-D3 single point of the dimer
|  2> ! wB97X-D3 def2-TZVP TIGHTSCF CHELPG PMODEL PAL8
|  3>
|  4> %base "3-94_DFT_AB"
|  5>
|  6> %scf
|  7> MaxIter 1000
|  8> end
|  9>
| 10> * xyz 0 1
| 11>   C                      8.643484             -10.596535           3.469221
| 12>   O                      8.955716             -10.854942           2.119081
| 13>   H                      9.117032             -9.999848            1.707795
| 14>   H                      9.382769             -10.096657           4.085668
| 15>   H                      7.796566             -9.991265            3.549302
| 16>   H                      8.301989             -11.458165           3.995973
| 17>   C                      10.717507            -5.682921            -0.704108
| 18>   O                      11.684847            -6.680928            -0.768538
| 19>   H                      11.791309            -7.182465            0.026745
| 20>   H                      9.707948             -6.070239            -0.379165
| 21>   H                      11.030124            -4.962343            0.037239
| 22>   H                      10.426397            -5.286583            -1.684069
| 23> *
| 24>
| 25> #Run DFT-D3 single point of the molecule with dimer basis set
| 26> $new_job
| 27> %base "3-94_DFT_A"
| 28> ! wB97X-D3 def2-TZVP TIGHTSCF CHELPG PMODEL
| 29>
| 30> %scf
| 31> MaxIter 1000
| 32> end
| 33>
| 34> * xyz 0 1
| 35>   C                      8.643484             -10.596535           3.469221
| 36>   O                      8.955716             -10.854942           2.119081
| 37>   H                      9.117032             -9.999848            1.707795
| 38>   H                      9.382769             -10.096657           4.085668
| 39>   H                      7.796566             -9.991265            3.549302
| 40>   H                      8.301989             -11.458165           3.995973
| 41>   C                    : 10.717507            -5.682921            -0.704108
| 42>   O                    : 11.684847            -6.680928            -0.768538
| 43>   H                    : 11.791309            -7.182465            0.026745
| 44>   H                    : 9.707948             -6.070239            -0.379165
| 45>   H                    : 11.030124            -4.962343            0.037239
| 46>   H                    : 10.426397            -5.286583            -1.684069
| 47> *
| 48>
| 49> #Run DFT-D3 single point of the particle with dimer basis set
| 50> $new_job
| 51> %base "3-94_DFT_B"
| 52> ! wB97X-D3 def2-TZVP TIGHTSCF CHELPG PMODEL
| 53>
| 54> %scf
| 55> MaxIter 1000
| 56> end
| 57>
| 58> * xyz 0 1
| 59>   C                    : 8.643484             -10.596535           3.469221
| 60>   O                    : 8.955716             -10.854942           2.119081
| 61>   H                    : 9.117032             -9.999848            1.707795
| 62>   H                    : 9.382769             -10.096657           4.085668
| 63>   H                    : 7.796566             -9.991265            3.549302
| 64>   H                    : 8.301989             -11.458165           3.995973
| 65>   C                      10.717507            -5.682921            -0.704108
| 66>   O                      11.684847            -6.680928            -0.768538
| 67>   H                      11.791309            -7.182465            0.026745
| 68>   H                      9.707948             -6.070239            -0.379165
| 69>   H                      11.030124            -4.962343            0.037239
| 70>   H                      10.426397            -5.286583            -1.684069
| 71> *
| 72>
| 73>                          ****END OF INPUT****
 Total Charge           Charge          ....    0
 Multiplicity           Mult            ....    1
 Number of Electrons    NEL             ....   36
Dispersion correction           -0.000602898
FINAL SINGLE POINT ENERGY      -231.460854360165
Dispersion correction           -0.000239298
FINAL SINGLE POINT ENERGY      -115.730680938452

CARTESIAN COORDINATES (ANGSTROEM)
---------------------------------
  C      8.643484  -10.596535    3.469221
  O      8.955716  -10.854942    2.119081
  H      9.117032   -9.999848    1.707795
  H      9.382769  -10.096657    4.085668
  H      7.796566   -9.991265    3.549302
  H      8.301989  -11.458165    3.995973
  C     10.717507   -5.682921   -0.704108
  O     11.684847   -6.680928   -0.768538
  H     11.791309   -7.182465    0.026745
  H      9.707948   -6.070239   -0.379165
  H     11.030124   -4.962343    0.037239
  H     10.426397   -5.286583   -1.684069

 Multiplicity           Mult            ....    1
 Number of Electrons    NEL             ....   18
 Basis Dimension        Dim             ....  172

ORBITAL ENERGIES
----------------

  NO   OCC          E(Eh)            E(eV)
   0   2.0000     -19.225889      -523.1630
   1   2.0000     -10.314635      -280.6755
   2   2.0000      -1.141383       -31.0586
   3   2.0000      -0.798098       -21.7173
   4   2.0000      -0.617081       -16.7916
   5   2.0000      -0.555780       -15.1236
   6   2.0000      -0.521226       -14.1833
   7   2.0000      -0.421070       -11.4579
   8   2.0000      -0.370262       -10.0754
   9   0.0000       0.080743         2.1971
  10   0.0000       0.113741         3.0951
  11   0.0000       0.153959         4.1894
  12   0.0000       0.165782         4.5111
  13   0.0000       0.194292         5.2869

MULLIKEN ATOMIC CHARGES
-----------------------
   0 C :    0.000005
   1 O :    0.000006
   2 H :   -0.000070
   3 H :   -0.000001
   4 H :   -0.000000
   5 H :   -0.000000
   6 C :   -0.148281
   7 O :   -0.478708
   8 H :    0.318364
   9 H :    0.084493
  10 H :    0.105053
  11 H :    0.119138
Sum of atomic charges:    0.0000000

LOEWDIN ATOMIC CHARGES
----------------------
   0 C :   -0.000003
   1 O :   -0.000001
   2 H :   -0.000037
   3 H :   -0.000000
   4 H :   -0.000000
   5 H :   -0.000000
   6 C :   -0.402279
   7 O :   -0.057428
   8 H :    0.160498
   9 H :    0.096370
  10 H :    0.092776
  11 H :    0.110104

  Mayer bond orders larger than 0.1
B(  6-C ,  7-O ) :   0.9966 B(  6-C ,  9-H ) :   0.9769 B(  6-C , 10-H ) :   0.9825
B(  6-C , 11-H ) :   0.9682 B(  7-O ,  8-H ) :   0.8940

Dispersion correction           -0.000244582
FINAL SINGLE POINT ENERGY      -115.730516128533

DIPOLE MOMENT
-------------
                                X             Y             Z
Electronic contribution:      1.41376      -1.17493      -0.24925
Nuclear contribution   :     -1.73513       1.23156       0.79006
                        -----------------------------------------
Total Dipole Moment    :     -0.32137       0.05663       0.54081
                        -----------------------------------------
Magnitude (a.u.)       :      0.63164
Magnitude (Debye)      :      1.60549

Rotational constants in cm-1:     4.400942     0.839987     0.814087
Rotational constants in MHz : 131936.936823 25182.180749 24405.713652

                             ****ORCA TERMINATED NORMALLY****
TOTAL RUN TIME: 0 days 0 hours 6 minutes 15 seconds 84 msec
