                         Program Version 4.1.2  - RELEASE  -
|  1> #Run DFT-D3 single point of the dimer
|  2> ! wB97X-D3 def2-TZVP TIGHTSCF CHELPG PMODEL PAL8
|  3>
|  4> %base "21-92_DFT_AB"
|  5>
|  6> %scf
|  7> MaxIter 1000
|  8> end
|  9>
| 10> * xyz 0 1
| 11>   C                      -0.279772            8.880130             -5.984317
| 12>   O                      0.783245             8.630714             -6.886738
| 13>   H                      0.274807             8.473379             -7.649880
| 14>   H                      -0.903684            9.718744             -6.263217
| 15>   H                      -0.970593            8.024726             -5.917269
| 16>   H                      0.085905             9.093486             -4.943612
| 17>   C                      3.033606             5.650073             -5.770058
| 18>   O                      2.795399             4.344122             -5.250891
| 19>   H                      1.932104             4.467012             -4.856824
| 20>   H                      2.852258             6.364832             -4.980401
| 21>   H                      4.038197             5.794201             -6.047904
| 22>   H                      2.378777             5.976326             -6.520583
| 23> *
| 24>
| 25> #Run DFT-D3 single point of the molecule with dimer basis set
| 26> $new_job
| 27> %base "21-92_DFT_A"
| 28> ! wB97X-D3 def2-TZVP TIGHTSCF CHELPG PMODEL
| 29>
| 30> %scf
| 31> MaxIter 1000
| 32> end
| 33>
| 34> * xyz 0 1
| 35>   C                      -0.279772            8.880130             -5.984317
| 36>   O                      0.783245             8.630714             -6.886738
| 37>   H                      0.274807             8.473379             -7.649880
| 38>   H                      -0.903684            9.718744             -6.263217
| 39>   H                      -0.970593            8.024726             -5.917269
| 40>   H                      0.085905             9.093486             -4.943612
| 41>   C                    : 3.033606             5.650073             -5.770058
| 42>   O                    : 2.795399             4.344122             -5.250891
| 43>   H                    : 1.932104             4.467012             -4.856824
| 44>   H                    : 2.852258             6.364832             -4.980401
| 45>   H                    : 4.038197             5.794201             -6.047904
| 46>   H                    : 2.378777             5.976326             -6.520583
| 47> *
| 48>
| 49> #Run DFT-D3 single point of the particle with dimer basis set
| 50> $new_job
| 51> %base "21-92_DFT_B"
| 52> ! wB97X-D3 def2-TZVP TIGHTSCF CHELPG PMODEL
| 53>
| 54> %scf
| 55> MaxIter 1000
| 56> end
| 57>
| 58> * xyz 0 1
| 59>   C                    : -0.279772            8.880130             -5.984317
| 60>   O                    : 0.783245             8.630714             -6.886738
| 61>   H                    : 0.274807             8.473379             -7.649880
| 62>   H                    : -0.903684            9.718744             -6.263217
| 63>   H                    : -0.970593            8.024726             -5.917269
| 64>   H                    : 0.085905             9.093486             -4.943612
| 65>   C                      3.033606             5.650073             -5.770058
| 66>   O                      2.795399             4.344122             -5.250891
| 67>   H                      1.932104             4.467012             -4.856824
| 68>   H                      2.852258             6.364832             -4.980401
| 69>   H                      4.038197             5.794201             -6.047904
| 70>   H                      2.378777             5.976326             -6.520583
| 71> *
| 72>
| 73>                          ****END OF INPUT****
 Total Charge           Charge          ....    0
 Multiplicity           Mult            ....    1
 Number of Electrons    NEL             ....   36
Dispersion correction           -0.001177324
FINAL SINGLE POINT ENERGY      -231.463693838162
Dispersion correction           -0.000223180
FINAL SINGLE POINT ENERGY      -115.732086829934

CARTESIAN COORDINATES (ANGSTROEM)
---------------------------------
  C     -0.279772    8.880130   -5.984317
  O      0.783245    8.630714   -6.886738
  H      0.274807    8.473379   -7.649880
  H     -0.903684    9.718744   -6.263217
  H     -0.970593    8.024726   -5.917269
  H      0.085905    9.093486   -4.943612
  C      3.033606    5.650073   -5.770058
  O      2.795399    4.344122   -5.250891
  H      1.932104    4.467012   -4.856824
  H      2.852258    6.364832   -4.980401
  H      4.038197    5.794201   -6.047904
  H      2.378777    5.976326   -6.520583

 Multiplicity           Mult            ....    1
 Number of Electrons    NEL             ....   18
 Basis Dimension        Dim             ....  172

ORBITAL ENERGIES
----------------

  NO   OCC          E(Eh)            E(eV)
   0   2.0000     -19.232097      -523.3320
   1   2.0000     -10.302851      -280.3548
   2   2.0000      -1.138399       -30.9774
   3   2.0000      -0.803093       -21.8533
   4   2.0000      -0.613306       -16.6889
   5   2.0000      -0.541850       -14.7445
   6   2.0000      -0.529998       -14.4220
   7   2.0000      -0.447320       -12.1722
   8   2.0000      -0.374079       -10.1792
   9   0.0000       0.074913         2.0385
  10   0.0000       0.117638         3.2011
  11   0.0000       0.148329         4.0362
  12   0.0000       0.159976         4.3532
  13   0.0000       0.191167         5.2019

MULLIKEN ATOMIC CHARGES
-----------------------
   0 C :   -0.000230
   1 O :   -0.000097
   2 H :   -0.000122
   3 H :    0.000000
   4 H :    0.000005
   5 H :   -0.000061
   6 C :   -0.178942
   7 O :   -0.465155
   8 H :    0.313066
   9 H :    0.101829
  10 H :    0.122017
  11 H :    0.107691
Sum of atomic charges:   -0.0000000

LOEWDIN ATOMIC CHARGES
----------------------
   0 C :   -0.000401
   1 O :   -0.000878
   2 H :   -0.000237
   3 H :   -0.000004
   4 H :   -0.000023
   5 H :   -0.000076
   6 C :   -0.371053
   7 O :   -0.079731
   8 H :    0.170581
   9 H :    0.095688
  10 H :    0.100203
  11 H :    0.085930

  Mayer bond orders larger than 0.1
B(  6-C ,  7-O ) :   0.9983 B(  6-C ,  9-H ) :   0.9902 B(  6-C , 10-H ) :   0.9748
B(  6-C , 11-H ) :   0.9701 B(  7-O ,  8-H ) :   0.9051

Dispersion correction           -0.000212335
FINAL SINGLE POINT ENERGY      -115.729992208933

DIPOLE MOMENT
-------------
                                X             Y             Z
Electronic contribution:     -0.11327      -1.82719       0.46003
Nuclear contribution   :     -0.32023       2.43909      -0.41608
                        -----------------------------------------
Total Dipole Moment    :     -0.43350       0.61190       0.04395
                        -----------------------------------------
Magnitude (a.u.)       :      0.75118
Magnitude (Debye)      :      1.90936

Rotational constants in cm-1:     4.517609     0.834461     0.797589
Rotational constants in MHz : 135434.513004 25016.520401 23911.118812

                             ****ORCA TERMINATED NORMALLY****
TOTAL RUN TIME: 0 days 0 hours 1 minutes 3 seconds 843 msec
