                         Program Version 4.1.2  - RELEASE  -
|  1> #Run DFT-D3 single point of the dimer
|  2> ! wB97X-D3 def2-TZVP TIGHTSCF CHELPG PMODEL PAL8
|  3>
|  4> %base "4-42_DFT_AB"
|  5>
|  6> %scf
|  7> MaxIter 1000
|  8> end
|  9>
| 10> * xyz 0 1
| 11>   C                      -5.908820            9.914225             2.928473
| 12>   O                      -5.230822            9.218383             3.952010
| 13>   H                      -5.789429            8.456262             4.113283
| 14>   H                      -5.594980            9.513840             1.948550
| 15>   H                      -6.928582            9.598080             2.978379
| 16>   H                      -5.841982            11.018729            3.005331
| 17>   C                      -7.741579            6.502765             4.708709
| 18>   O                      -6.830187            6.464121             3.627101
| 19>   H                      -7.199528            5.893680             2.878585
| 20>   H                      -7.395939            7.084489             5.532735
| 21>   H                      -8.659942            7.097401             4.333355
| 22>   H                      -7.927630            5.517504             5.124690
| 23> *
| 24>
| 25> #Run DFT-D3 single point of the molecule with dimer basis set
| 26> $new_job
| 27> %base "4-42_DFT_A"
| 28> ! wB97X-D3 def2-TZVP TIGHTSCF CHELPG PMODEL
| 29>
| 30> %scf
| 31> MaxIter 1000
| 32> end
| 33>
| 34> * xyz 0 1
| 35>   C                      -5.908820            9.914225             2.928473
| 36>   O                      -5.230822            9.218383             3.952010
| 37>   H                      -5.789429            8.456262             4.113283
| 38>   H                      -5.594980            9.513840             1.948550
| 39>   H                      -6.928582            9.598080             2.978379
| 40>   H                      -5.841982            11.018729            3.005331
| 41>   C                    : -7.741579            6.502765             4.708709
| 42>   O                    : -6.830187            6.464121             3.627101
| 43>   H                    : -7.199528            5.893680             2.878585
| 44>   H                    : -7.395939            7.084489             5.532735
| 45>   H                    : -8.659942            7.097401             4.333355
| 46>   H                    : -7.927630            5.517504             5.124690
| 47> *
| 48>
| 49> #Run DFT-D3 single point of the particle with dimer basis set
| 50> $new_job
| 51> %base "4-42_DFT_B"
| 52> ! wB97X-D3 def2-TZVP TIGHTSCF CHELPG PMODEL
| 53>
| 54> %scf
| 55> MaxIter 1000
| 56> end
| 57>
| 58> * xyz 0 1
| 59>   C                    : -5.908820            9.914225             2.928473
| 60>   O                    : -5.230822            9.218383             3.952010
| 61>   H                    : -5.789429            8.456262             4.113283
| 62>   H                    : -5.594980            9.513840             1.948550
| 63>   H                    : -6.928582            9.598080             2.978379
| 64>   H                    : -5.841982            11.018729            3.005331
| 65>   C                      -7.741579            6.502765             4.708709
| 66>   O                      -6.830187            6.464121             3.627101
| 67>   H                      -7.199528            5.893680             2.878585
| 68>   H                      -7.395939            7.084489             5.532735
| 69>   H                      -8.659942            7.097401             4.333355
| 70>   H                      -7.927630            5.517504             5.124690
| 71> *
| 72>
| 73>                          ****END OF INPUT****
 Total Charge           Charge          ....    0
 Multiplicity           Mult            ....    1
 Number of Electrons    NEL             ....   36
Dispersion correction           -0.001912495
FINAL SINGLE POINT ENERGY      -231.465306660393
Dispersion correction           -0.000218551
FINAL SINGLE POINT ENERGY      -115.730951483384

CARTESIAN COORDINATES (ANGSTROEM)
---------------------------------
  C     -5.908820    9.914225    2.928473
  O     -5.230822    9.218383    3.952010
  H     -5.789429    8.456262    4.113283
  H     -5.594980    9.513840    1.948550
  H     -6.928582    9.598080    2.978379
  H     -5.841982   11.018729    3.005331
  C     -7.741579    6.502765    4.708709
  O     -6.830187    6.464121    3.627101
  H     -7.199528    5.893680    2.878585
  H     -7.395939    7.084489    5.532735
  H     -8.659942    7.097401    4.333355
  H     -7.927630    5.517504    5.124690

 Multiplicity           Mult            ....    1
 Number of Electrons    NEL             ....   18
 Basis Dimension        Dim             ....  172

ORBITAL ENERGIES
----------------

  NO   OCC          E(Eh)            E(eV)
   0   2.0000     -19.232936      -523.3548
   1   2.0000     -10.315420      -280.6969
   2   2.0000      -1.125191       -30.6180
   3   2.0000      -0.791643       -21.5417
   4   2.0000      -0.598494       -16.2858
   5   2.0000      -0.545460       -14.8427
   6   2.0000      -0.530836       -14.4448
   7   2.0000      -0.421517       -11.4700
   8   2.0000      -0.371485       -10.1086
   9   0.0000       0.094148         2.5619
  10   0.0000       0.122977         3.3464
  11   0.0000       0.147901         4.0246
  12   0.0000       0.180709         4.9174
  13   0.0000       0.193516         5.2658

MULLIKEN ATOMIC CHARGES
-----------------------
   0 C :    0.001537
   1 O :   -0.000535
   2 H :   -0.000312
   3 H :   -0.001182
   4 H :   -0.003220
   5 H :   -0.000242
   6 C :   -0.166839
   7 O :   -0.479263
   8 H :    0.318317
   9 H :    0.125649
  10 H :    0.097098
  11 H :    0.108994
Sum of atomic charges:    0.0000000

LOEWDIN ATOMIC CHARGES
----------------------
   0 C :   -0.004198
   1 O :   -0.001612
   2 H :   -0.014402
   3 H :   -0.000429
   4 H :   -0.001620
   5 H :   -0.000061
   6 C :   -0.390192
   7 O :   -0.088792
   8 H :    0.197318
   9 H :    0.102227
  10 H :    0.107478
  11 H :    0.094282

  Mayer bond orders larger than 0.1
B(  6-C ,  7-O ) :   0.9918 B(  6-C ,  9-H ) :   0.9727 B(  6-C , 10-H ) :   0.9838
B(  6-C , 11-H ) :   0.9703 B(  7-O ,  8-H ) :   0.8866

Dispersion correction           -0.000251658
FINAL SINGLE POINT ENERGY      -115.728567660946

DIPOLE MOMENT
-------------
                                X             Y             Z
Electronic contribution:      1.31743      -0.07296      -1.22875
Nuclear contribution   :     -1.87863      -0.27048       1.22733
                        -----------------------------------------
Total Dipole Moment    :     -0.56121      -0.34344      -0.00142
                        -----------------------------------------
Magnitude (a.u.)       :      0.65796
Magnitude (Debye)      :      1.67239

Rotational constants in cm-1:     4.180309     0.815339     0.802259
Rotational constants in MHz : 125322.518048 24443.235700 24051.132962

                             ****ORCA TERMINATED NORMALLY****
TOTAL RUN TIME: 0 days 0 hours 1 minutes 29 seconds 865 msec
