                         Program Version 4.1.2  - RELEASE  -
|  1> #Run DFT-D3 single point of the dimer
|  2> ! wB97X-D3 def2-TZVP TIGHTSCF CHELPG PMODEL PAL8
|  3>
|  4> %base "1-105_DFT_AB"
|  5>
|  6> %scf
|  7> MaxIter 1000
|  8> end
|  9>
| 10> * xyz 0 1
| 11>   C                      -0.021919            8.009453             2.783988
| 12>   O                      -0.528219            7.199774             3.833651
| 13>   H                      0.125578             6.504699             4.084652
| 14>   H                      0.915588             8.444604             3.152632
| 15>   H                      0.145282             7.447361             1.830952
| 16>   H                      -0.773289            8.872872             2.476492
| 17>   C                      -1.583089            3.679909             6.660968
| 18>   O                      -0.254133            3.169443             6.910270
| 19>   H                      0.284704             3.991523             7.033717
| 20>   H                      -2.256427            2.861545             6.519312
| 21>   H                      -1.990052            4.306250             7.423567
| 22>   H                      -1.570682            4.192405             5.731349
| 23> *
| 24>
| 25> #Run DFT-D3 single point of the molecule with dimer basis set
| 26> $new_job
| 27> %base "1-105_DFT_A"
| 28> ! wB97X-D3 def2-TZVP TIGHTSCF CHELPG PMODEL
| 29>
| 30> %scf
| 31> MaxIter 1000
| 32> end
| 33>
| 34> * xyz 0 1
| 35>   C                      -0.021919            8.009453             2.783988
| 36>   O                      -0.528219            7.199774             3.833651
| 37>   H                      0.125578             6.504699             4.084652
| 38>   H                      0.915588             8.444604             3.152632
| 39>   H                      0.145282             7.447361             1.830952
| 40>   H                      -0.773289            8.872872             2.476492
| 41>   C                    : -1.583089            3.679909             6.660968
| 42>   O                    : -0.254133            3.169443             6.910270
| 43>   H                    : 0.284704             3.991523             7.033717
| 44>   H                    : -2.256427            2.861545             6.519312
| 45>   H                    : -1.990052            4.306250             7.423567
| 46>   H                    : -1.570682            4.192405             5.731349
| 47> *
| 48>
| 49> #Run DFT-D3 single point of the particle with dimer basis set
| 50> $new_job
| 51> %base "1-105_DFT_B"
| 52> ! wB97X-D3 def2-TZVP TIGHTSCF CHELPG PMODEL
| 53>
| 54> %scf
| 55> MaxIter 1000
| 56> end
| 57>
| 58> * xyz 0 1
| 59>   C                    : -0.021919            8.009453             2.783988
| 60>   O                    : -0.528219            7.199774             3.833651
| 61>   H                    : 0.125578             6.504699             4.084652
| 62>   H                    : 0.915588             8.444604             3.152632
| 63>   H                    : 0.145282             7.447361             1.830952
| 64>   H                    : -0.773289            8.872872             2.476492
| 65>   C                      -1.583089            3.679909             6.660968
| 66>   O                      -0.254133            3.169443             6.910270
| 67>   H                      0.284704             3.991523             7.033717
| 68>   H                      -2.256427            2.861545             6.519312
| 69>   H                      -1.990052            4.306250             7.423567
| 70>   H                      -1.570682            4.192405             5.731349
| 71> *
| 72>
| 73>                          ****END OF INPUT****
 Total Charge           Charge          ....    0
 Multiplicity           Mult            ....    1
 Number of Electrons    NEL             ....   36
Dispersion correction           -0.000843933
FINAL SINGLE POINT ENERGY      -231.462594349251
Dispersion correction           -0.000261686
FINAL SINGLE POINT ENERGY      -115.729220912029

CARTESIAN COORDINATES (ANGSTROEM)
---------------------------------
  C     -0.021919    8.009453    2.783988
  O     -0.528219    7.199774    3.833651
  H      0.125578    6.504699    4.084652
  H      0.915588    8.444604    3.152632
  H      0.145282    7.447361    1.830952
  H     -0.773289    8.872872    2.476492
  C     -1.583089    3.679909    6.660968
  O     -0.254133    3.169443    6.910270
  H      0.284704    3.991523    7.033717
  H     -2.256427    2.861545    6.519312
  H     -1.990052    4.306250    7.423567
  H     -1.570682    4.192405    5.731349

 Multiplicity           Mult            ....    1
 Number of Electrons    NEL             ....   18
 Basis Dimension        Dim             ....  172

ORBITAL ENERGIES
----------------

  NO   OCC          E(Eh)            E(eV)
   0   2.0000     -19.233130      -523.3601
   1   2.0000     -10.305312      -280.4218
   2   2.0000      -1.123099       -30.5611
   3   2.0000      -0.799806       -21.7638
   4   2.0000      -0.600741       -16.3470
   5   2.0000      -0.546099       -14.8601
   6   2.0000      -0.522278       -14.2119
   7   2.0000      -0.440548       -11.9879
   8   2.0000      -0.375394       -10.2150
   9   0.0000       0.080397         2.1877
  10   0.0000       0.110166         2.9978
  11   0.0000       0.150525         4.0960
  12   0.0000       0.167528         4.5587
  13   0.0000       0.192977         5.2512

MULLIKEN ATOMIC CHARGES
-----------------------
   0 C :   -0.000085
   1 O :   -0.000099
   2 H :    0.000182
   3 H :    0.000002
   4 H :    0.000004
   5 H :   -0.000001
   6 C :   -0.178828
   7 O :   -0.475722
   8 H :    0.313710
   9 H :    0.118995
  10 H :    0.110707
  11 H :    0.111134
Sum of atomic charges:    0.0000000

LOEWDIN ATOMIC CHARGES
----------------------
   0 C :   -0.000018
   1 O :   -0.000140
   2 H :   -0.000263
   3 H :   -0.000000
   4 H :   -0.000000
   5 H :   -0.000000
   6 C :   -0.360569
   7 O :   -0.111047
   8 H :    0.185308
   9 H :    0.104452
  10 H :    0.090976
  11 H :    0.091303

  Mayer bond orders larger than 0.1
B(  6-C ,  7-O ) :   0.9992 B(  6-C ,  9-H ) :   0.9756 B(  6-C , 10-H ) :   0.9709
B(  6-C , 11-H ) :   0.9815 B(  7-O ,  8-H ) :   0.9003

Dispersion correction           -0.000233389
FINAL SINGLE POINT ENERGY      -115.732866723966

DIPOLE MOMENT
-------------
                                X             Y             Z
Electronic contribution:      1.59417      -0.76748       0.37359
Nuclear contribution   :     -1.82468       1.47081      -0.41277
                        -----------------------------------------
Total Dipole Moment    :     -0.23051       0.70333      -0.03919
                        -----------------------------------------
Magnitude (a.u.)       :      0.74118
Magnitude (Debye)      :      1.88393

Rotational constants in cm-1:     4.387907     0.809876     0.780358
Rotational constants in MHz : 131546.154271 24279.470371 23394.553126

                             ****ORCA TERMINATED NORMALLY****
TOTAL RUN TIME: 0 days 0 hours 4 minutes 5 seconds 239 msec
