                         Program Version 4.1.2  - RELEASE  -
|  1> #Run DFT-D3 single point of the dimer
|  2> ! wB97X-D3 def2-TZVP TIGHTSCF CHELPG PMODEL PAL8
|  3>
|  4> %base "18-89_DFT_AB"
|  5>
|  6> %scf
|  7> MaxIter 1000
|  8> end
|  9>
| 10> * xyz 0 1
| 11>   C                      1.101496             -2.053978            7.307832
| 12>   O                      1.384987             -2.297058            5.969188
| 13>   H                      1.151471             -3.185395            5.702275
| 14>   H                      1.317104             -1.048099            7.698919
| 15>   H                      0.046442             -2.231063            7.406682
| 16>   H                      1.610017             -2.809292            7.907819
| 17>   C                      -2.821279            -4.018960            3.426932
| 18>   O                      -1.694309            -4.510608            4.047991
| 19>   H                      -0.937718            -4.038095            3.738168
| 20>   H                      -2.660955            -4.031095            2.353406
| 21>   H                      -3.755240            -4.648577            3.567780
| 22>   H                      -3.052784            -2.989722            3.669558
| 23> *
| 24>
| 25> #Run DFT-D3 single point of the molecule with dimer basis set
| 26> $new_job
| 27> %base "18-89_DFT_A"
| 28> ! wB97X-D3 def2-TZVP TIGHTSCF CHELPG PMODEL
| 29>
| 30> %scf
| 31> MaxIter 1000
| 32> end
| 33>
| 34> * xyz 0 1
| 35>   C                      1.101496             -2.053978            7.307832
| 36>   O                      1.384987             -2.297058            5.969188
| 37>   H                      1.151471             -3.185395            5.702275
| 38>   H                      1.317104             -1.048099            7.698919
| 39>   H                      0.046442             -2.231063            7.406682
| 40>   H                      1.610017             -2.809292            7.907819
| 41>   C                    : -2.821279            -4.018960            3.426932
| 42>   O                    : -1.694309            -4.510608            4.047991
| 43>   H                    : -0.937718            -4.038095            3.738168
| 44>   H                    : -2.660955            -4.031095            2.353406
| 45>   H                    : -3.755240            -4.648577            3.567780
| 46>   H                    : -3.052784            -2.989722            3.669558
| 47> *
| 48>
| 49> #Run DFT-D3 single point of the particle with dimer basis set
| 50> $new_job
| 51> %base "18-89_DFT_B"
| 52> ! wB97X-D3 def2-TZVP TIGHTSCF CHELPG PMODEL
| 53>
| 54> %scf
| 55> MaxIter 1000
| 56> end
| 57>
| 58> * xyz 0 1
| 59>   C                    : 1.101496             -2.053978            7.307832
| 60>   O                    : 1.384987             -2.297058            5.969188
| 61>   H                    : 1.151471             -3.185395            5.702275
| 62>   H                    : 1.317104             -1.048099            7.698919
| 63>   H                    : 0.046442             -2.231063            7.406682
| 64>   H                    : 1.610017             -2.809292            7.907819
| 65>   C                      -2.821279            -4.018960            3.426932
| 66>   O                      -1.694309            -4.510608            4.047991
| 67>   H                      -0.937718            -4.038095            3.738168
| 68>   H                      -2.660955            -4.031095            2.353406
| 69>   H                      -3.755240            -4.648577            3.567780
| 70>   H                      -3.052784            -2.989722            3.669558
| 71> *
| 72>
| 73>                          ****END OF INPUT****
 Total Charge           Charge          ....    0
 Multiplicity           Mult            ....    1
 Number of Electrons    NEL             ....   36
Dispersion correction           -0.000895801
FINAL SINGLE POINT ENERGY      -231.464432865787
Dispersion correction           -0.000215820
FINAL SINGLE POINT ENERGY      -115.730643817892

CARTESIAN COORDINATES (ANGSTROEM)
---------------------------------
  C      1.101496   -2.053978    7.307832
  O      1.384987   -2.297058    5.969188
  H      1.151471   -3.185395    5.702275
  H      1.317104   -1.048099    7.698919
  H      0.046442   -2.231063    7.406682
  H      1.610017   -2.809292    7.907819
  C     -2.821279   -4.018960    3.426932
  O     -1.694309   -4.510608    4.047991
  H     -0.937718   -4.038095    3.738168
  H     -2.660955   -4.031095    2.353406
  H     -3.755240   -4.648577    3.567780
  H     -3.052784   -2.989722    3.669558

 Multiplicity           Mult            ....    1
 Number of Electrons    NEL             ....   18
 Basis Dimension        Dim             ....  172

ORBITAL ENERGIES
----------------

  NO   OCC          E(Eh)            E(eV)
   0   2.0000     -19.229817      -523.2699
   1   2.0000     -10.312380      -280.6141
   2   2.0000      -1.151397       -31.3311
   3   2.0000      -0.795337       -21.6422
   4   2.0000      -0.622851       -16.9486
   5   2.0000      -0.545653       -14.8480
   6   2.0000      -0.532239       -14.4829
   7   2.0000      -0.427715       -11.6387
   8   2.0000      -0.372081       -10.1248
   9   0.0000       0.084703         2.3049
  10   0.0000       0.118988         3.2378
  11   0.0000       0.148211         4.0330
  12   0.0000       0.182731         4.9724
  13   0.0000       0.198195         5.3932

MULLIKEN ATOMIC CHARGES
-----------------------
   0 C :    0.000701
   1 O :    0.000017
   2 H :   -0.001562
   3 H :   -0.000012
   4 H :   -0.000740
   5 H :   -0.000017
   6 C :   -0.162861
   7 O :   -0.465714
   8 H :    0.318158
   9 H :    0.100060
  10 H :    0.116464
  11 H :    0.095508
Sum of atomic charges:    0.0000000

LOEWDIN ATOMIC CHARGES
----------------------
   0 C :   -0.000097
   1 O :   -0.000116
   2 H :   -0.001124
   3 H :   -0.000001
   4 H :   -0.000175
   5 H :   -0.000001
   6 C :   -0.417218
   7 O :   -0.042187
   8 H :    0.163816
   9 H :    0.091569
  10 H :    0.116976
  11 H :    0.088558

  Mayer bond orders larger than 0.1
B(  6-C ,  7-O ) :   1.0019 B(  6-C ,  9-H ) :   0.9887 B(  6-C , 10-H ) :   0.9690
B(  6-C , 11-H ) :   0.9724 B(  7-O ,  8-H ) :   0.8956

Dispersion correction           -0.000227561
FINAL SINGLE POINT ENERGY      -115.732635859101

DIPOLE MOMENT
-------------
                                X             Y             Z
Electronic contribution:      1.44711      -0.73264       1.01222
Nuclear contribution   :     -1.38334       1.21952      -1.46963
                        -----------------------------------------
Total Dipole Moment    :      0.06377       0.48688      -0.45740
                        -----------------------------------------
Magnitude (a.u.)       :      0.67107
Magnitude (Debye)      :      1.70573

Rotational constants in cm-1:     4.398391     0.859720     0.825497
Rotational constants in MHz : 131860.430756 25773.770942 24747.782847

                             ****ORCA TERMINATED NORMALLY****
TOTAL RUN TIME: 0 days 0 hours 1 minutes 1 seconds 210 msec
