                         Program Version 4.1.2  - RELEASE  -
|  1> #Run DFT-D3 single point of the dimer
|  2> ! wB97X-D3 def2-TZVP TIGHTSCF CHELPG PMODEL PAL8
|  3>
|  4> %base "14-206_DFT_AB"
|  5>
|  6> %scf
|  7> MaxIter 1000
|  8> end
|  9>
| 10> * xyz 0 1
| 11>   C                      -4.976401            0.858105             -1.008490
| 12>   O                      -6.288005            0.928399             -0.574650
| 13>   H                      -6.440537            0.206410             0.015058
| 14>   H                      -4.691179            -0.199261            -1.167981
| 15>   H                      -4.900961            1.486722             -1.938916
| 16>   H                      -4.357864            1.263733             -0.209785
| 17>   C                      -6.408294            -0.389796            2.551598
| 18>   O                      -6.420254            -1.093540            1.289207
| 19>   H                      -7.153297            -1.705362            1.230921
| 20>   H                      -7.216559            0.336001             2.634509
| 21>   H                      -6.554467            -1.105852            3.362458
| 22>   H                      -5.458639            0.152382             2.759192
| 23> *
| 24>
| 25> #Run DFT-D3 single point of the molecule with dimer basis set
| 26> $new_job
| 27> %base "14-206_DFT_A"
| 28> ! wB97X-D3 def2-TZVP TIGHTSCF CHELPG PMODEL
| 29>
| 30> %scf
| 31> MaxIter 1000
| 32> end
| 33>
| 34> * xyz 0 1
| 35>   C                      -4.976401            0.858105             -1.008490
| 36>   O                      -6.288005            0.928399             -0.574650
| 37>   H                      -6.440537            0.206410             0.015058
| 38>   H                      -4.691179            -0.199261            -1.167981
| 39>   H                      -4.900961            1.486722             -1.938916
| 40>   H                      -4.357864            1.263733             -0.209785
| 41>   C                    : -6.408294            -0.389796            2.551598
| 42>   O                    : -6.420254            -1.093540            1.289207
| 43>   H                    : -7.153297            -1.705362            1.230921
| 44>   H                    : -7.216559            0.336001             2.634509
| 45>   H                    : -6.554467            -1.105852            3.362458
| 46>   H                    : -5.458639            0.152382             2.759192
| 47> *
| 48>
| 49> #Run DFT-D3 single point of the particle with dimer basis set
| 50> $new_job
| 51> %base "14-206_DFT_B"
| 52> ! wB97X-D3 def2-TZVP TIGHTSCF CHELPG PMODEL
| 53>
| 54> %scf
| 55> MaxIter 1000
| 56> end
| 57>
| 58> * xyz 0 1
| 59>   C                    : -4.976401            0.858105             -1.008490
| 60>   O                    : -6.288005            0.928399             -0.574650
| 61>   H                    : -6.440537            0.206410             0.015058
| 62>   H                    : -4.691179            -0.199261            -1.167981
| 63>   H                    : -4.900961            1.486722             -1.938916
| 64>   H                    : -4.357864            1.263733             -0.209785
| 65>   C                      -6.408294            -0.389796            2.551598
| 66>   O                      -6.420254            -1.093540            1.289207
| 67>   H                      -7.153297            -1.705362            1.230921
| 68>   H                      -7.216559            0.336001             2.634509
| 69>   H                      -6.554467            -1.105852            3.362458
| 70>   H                      -5.458639            0.152382             2.759192
| 71> *
| 72>
| 73>                          ****END OF INPUT****
 Total Charge           Charge          ....    0
 Multiplicity           Mult            ....    1
 Number of Electrons    NEL             ....   36
Dispersion correction           -0.002020656
FINAL SINGLE POINT ENERGY      -231.477366110537
Dispersion correction           -0.000210078
FINAL SINGLE POINT ENERGY      -115.733927044200

CARTESIAN COORDINATES (ANGSTROEM)
---------------------------------
  C     -4.976401    0.858105   -1.008490
  O     -6.288005    0.928399   -0.574650
  H     -6.440537    0.206410    0.015058
  H     -4.691179   -0.199261   -1.167981
  H     -4.900961    1.486722   -1.938916
  H     -4.357864    1.263733   -0.209785
  C     -6.408294   -0.389796    2.551598
  O     -6.420254   -1.093540    1.289207
  H     -7.153297   -1.705362    1.230921
  H     -7.216559    0.336001    2.634509
  H     -6.554467   -1.105852    3.362458
  H     -5.458639    0.152382    2.759192

 Multiplicity           Mult            ....    1
 Number of Electrons    NEL             ....   18
 Basis Dimension        Dim             ....  172

ORBITAL ENERGIES
----------------

  NO   OCC          E(Eh)            E(eV)
   0   2.0000     -19.230001      -523.2749
   1   2.0000     -10.318875      -280.7909
   2   2.0000      -1.125909       -30.6375
   3   2.0000      -0.798745       -21.7349
   4   2.0000      -0.607599       -16.5336
   5   2.0000      -0.536656       -14.6032
   6   2.0000      -0.527458       -14.3529
   7   2.0000      -0.430461       -11.7134
   8   2.0000      -0.374909       -10.2018
   9   0.0000       0.099862         2.7174
  10   0.0000       0.128282         3.4907
  11   0.0000       0.146354         3.9825
  12   0.0000       0.187674         5.1069
  13   0.0000       0.195334         5.3153

MULLIKEN ATOMIC CHARGES
-----------------------
   0 C :    0.007946
   1 O :   -0.000981
   2 H :   -0.013034
   3 H :   -0.003607
   4 H :   -0.000117
   5 H :   -0.001478
   6 C :   -0.162939
   7 O :   -0.486572
   8 H :    0.317155
   9 H :    0.109017
  10 H :    0.107782
  11 H :    0.126829
Sum of atomic charges:    0.0000000

LOEWDIN ATOMIC CHARGES
----------------------
   0 C :   -0.005312
   1 O :   -0.007778
   2 H :   -0.056395
   3 H :   -0.001815
   4 H :   -0.000063
   5 H :   -0.000297
   6 C :   -0.357060
   7 O :   -0.042105
   8 H :    0.164279
   9 H :    0.094639
  10 H :    0.097220
  11 H :    0.114688

  Mayer bond orders larger than 0.1
B(  6-C ,  7-O ) :   0.9751 B(  6-C ,  9-H ) :   0.9759 B(  6-C , 10-H ) :   0.9777
B(  6-C , 11-H ) :   0.9715 B(  7-O ,  8-H ) :   0.8946

Dispersion correction           -0.000264329
FINAL SINGLE POINT ENERGY      -115.734408119506

DIPOLE MOMENT
-------------
                                X             Y             Z
Electronic contribution:      0.12819      -0.79251      -1.65309
Nuclear contribution   :     -0.59224       0.68752       2.17633
                        -----------------------------------------
Total Dipole Moment    :     -0.46406      -0.10499       0.52324
                        -----------------------------------------
Magnitude (a.u.)       :      0.70722
Magnitude (Debye)      :      1.79760

Rotational constants in cm-1:     4.383309     0.792657     0.764894
Rotational constants in MHz : 131408.294412 23763.257513 22930.942914

                             ****ORCA TERMINATED NORMALLY****
TOTAL RUN TIME: 0 days 0 hours 1 minutes 9 seconds 782 msec
