                         Program Version 4.1.2  - RELEASE  -
|  1> #Run DFT-D3 single point of the dimer
|  2> ! wB97X-D3 def2-TZVP TIGHTSCF CHELPG PMODEL PAL8
|  3>
|  4> %base "21-143_DFT_AB"
|  5>
|  6> %scf
|  7> MaxIter 1000
|  8> end
|  9>
| 10> * xyz 0 1
| 11>   C                      -2.546638            1.902959             -2.605679
| 12>   O                      -2.598122            0.758630             -3.458367
| 13>   H                      -3.379653            0.987957             -4.003683
| 14>   H                      -2.358352            2.803489             -3.201803
| 15>   H                      -3.498359            2.075437             -2.061589
| 16>   H                      -1.772985            1.821890             -1.845222
| 17>   C                      -4.078479            -2.248424            -2.195050
| 18>   O                      -4.903132            -3.303661            -2.540773
| 19>   H                      -5.809840            -3.251913            -2.376975
| 20>   H                      -3.658721            -2.507381            -1.205279
| 21>   H                      -3.354784            -1.977899            -2.980736
| 22>   H                      -4.769125            -1.432283            -2.040822
| 23> *
| 24>
| 25> #Run DFT-D3 single point of the molecule with dimer basis set
| 26> $new_job
| 27> %base "21-143_DFT_A"
| 28> ! wB97X-D3 def2-TZVP TIGHTSCF CHELPG PMODEL
| 29>
| 30> %scf
| 31> MaxIter 1000
| 32> end
| 33>
| 34> * xyz 0 1
| 35>   C                      -2.546638            1.902959             -2.605679
| 36>   O                      -2.598122            0.758630             -3.458367
| 37>   H                      -3.379653            0.987957             -4.003683
| 38>   H                      -2.358352            2.803489             -3.201803
| 39>   H                      -3.498359            2.075437             -2.061589
| 40>   H                      -1.772985            1.821890             -1.845222
| 41>   C                    : -4.078479            -2.248424            -2.195050
| 42>   O                    : -4.903132            -3.303661            -2.540773
| 43>   H                    : -5.809840            -3.251913            -2.376975
| 44>   H                    : -3.658721            -2.507381            -1.205279
| 45>   H                    : -3.354784            -1.977899            -2.980736
| 46>   H                    : -4.769125            -1.432283            -2.040822
| 47> *
| 48>
| 49> #Run DFT-D3 single point of the particle with dimer basis set
| 50> $new_job
| 51> %base "21-143_DFT_B"
| 52> ! wB97X-D3 def2-TZVP TIGHTSCF CHELPG PMODEL
| 53>
| 54> %scf
| 55> MaxIter 1000
| 56> end
| 57>
| 58> * xyz 0 1
| 59>   C                    : -2.546638            1.902959             -2.605679
| 60>   O                    : -2.598122            0.758630             -3.458367
| 61>   H                    : -3.379653            0.987957             -4.003683
| 62>   H                    : -2.358352            2.803489             -3.201803
| 63>   H                    : -3.498359            2.075437             -2.061589
| 64>   H                    : -1.772985            1.821890             -1.845222
| 65>   C                      -4.078479            -2.248424            -2.195050
| 66>   O                      -4.903132            -3.303661            -2.540773
| 67>   H                      -5.809840            -3.251913            -2.376975
| 68>   H                      -3.658721            -2.507381            -1.205279
| 69>   H                      -3.354784            -1.977899            -2.980736
| 70>   H                      -4.769125            -1.432283            -2.040822
| 71> *
| 72>
| 73>                          ****END OF INPUT****
 Total Charge           Charge          ....    0
 Multiplicity           Mult            ....    1
 Number of Electrons    NEL             ....   36
Dispersion correction           -0.001370579
FINAL SINGLE POINT ENERGY      -231.461166409537
Dispersion correction           -0.000228209
FINAL SINGLE POINT ENERGY      -115.734489132838

CARTESIAN COORDINATES (ANGSTROEM)
---------------------------------
  C     -2.546638    1.902959   -2.605679
  O     -2.598122    0.758630   -3.458367
  H     -3.379653    0.987957   -4.003683
  H     -2.358352    2.803489   -3.201803
  H     -3.498359    2.075437   -2.061589
  H     -1.772985    1.821890   -1.845222
  C     -4.078479   -2.248424   -2.195050
  O     -4.903132   -3.303661   -2.540773
  H     -5.809840   -3.251913   -2.376975
  H     -3.658721   -2.507381   -1.205279
  H     -3.354784   -1.977899   -2.980736
  H     -4.769125   -1.432283   -2.040822

 Multiplicity           Mult            ....    1
 Number of Electrons    NEL             ....   18
 Basis Dimension        Dim             ....  172

ORBITAL ENERGIES
----------------

  NO   OCC          E(Eh)            E(eV)
   0   2.0000     -19.214976      -522.8661
   1   2.0000     -10.312887      -280.6279
   2   2.0000      -1.143371       -31.1127
   3   2.0000      -0.801194       -21.8016
   4   2.0000      -0.618362       -16.8265
   5   2.0000      -0.551128       -14.9970
   6   2.0000      -0.535654       -14.5759
   7   2.0000      -0.409867       -11.1530
   8   2.0000      -0.368410       -10.0250
   9   0.0000       0.081891         2.2284
  10   0.0000       0.117912         3.2086
  11   0.0000       0.149257         4.0615
  12   0.0000       0.173065         4.7093
  13   0.0000       0.182605         4.9689

MULLIKEN ATOMIC CHARGES
-----------------------
   0 C :    0.000043
   1 O :   -0.000626
   2 H :   -0.000342
   3 H :    0.000002
   4 H :   -0.000227
   5 H :    0.000012
   6 C :   -0.128180
   7 O :   -0.497814
   8 H :    0.316963
   9 H :    0.097242
  10 H :    0.119052
  11 H :    0.093875
Sum of atomic charges:    0.0000000

LOEWDIN ATOMIC CHARGES
----------------------
   0 C :   -0.000545
   1 O :   -0.001940
   2 H :   -0.000689
   3 H :   -0.000008
   4 H :   -0.000134
   5 H :   -0.000009
   6 C :   -0.393372
   7 O :   -0.048568
   8 H :    0.141914
   9 H :    0.100983
  10 H :    0.107413
  11 H :    0.094955

  Mayer bond orders larger than 0.1
B(  6-C ,  7-O ) :   0.9907 B(  6-C ,  9-H ) :   0.9759 B(  6-C , 10-H ) :   0.9638
B(  6-C , 11-H ) :   0.9994 B(  7-O ,  8-H ) :   0.8985

Dispersion correction           -0.000226427
FINAL SINGLE POINT ENERGY      -115.725384524522

DIPOLE MOMENT
-------------
                                X             Y             Z
Electronic contribution:     -0.81489      -1.33966      -0.54127
Nuclear contribution   :      0.49113       1.82539       0.78982
                        -----------------------------------------
Total Dipole Moment    :     -0.32376       0.48573       0.24855
                        -----------------------------------------
Magnitude (a.u.)       :      0.63445
Magnitude (Debye)      :      1.61265

Rotational constants in cm-1:     4.380015     0.857925     0.839676
Rotational constants in MHz : 131309.559628 25719.951181 25172.866050

                             ****ORCA TERMINATED NORMALLY****
TOTAL RUN TIME: 0 days 0 hours 1 minutes 2 seconds 204 msec
