                         Program Version 4.1.2  - RELEASE  -
|  1> #Run DFT-D3 single point of the dimer
|  2> ! wB97X-D3 def2-TZVP TIGHTSCF CHELPG PMODEL PAL8
|  3>
|  4> %base "18-188_DFT_AB"
|  5>
|  6> %scf
|  7> MaxIter 1000
|  8> end
|  9>
| 10> * xyz 0 1
| 11>   C                      5.145212             -11.023255           -6.473144
| 12>   O                      6.165765             -10.033122           -6.475074
| 13>   H                      6.160345             -9.606264            -7.317652
| 14>   H                      4.241159             -10.711664           -5.988630
| 15>   H                      4.936577             -11.255154           -7.514384
| 16>   H                      5.558417             -11.941200           -6.064285
| 17>   C                      4.032736             -6.967960            -6.716628
| 18>   O                      3.995714             -7.928267            -7.704090
| 19>   H                      4.878147             -8.046026            -8.041079
| 20>   H                      4.645797             -6.216006            -7.105603
| 21>   H                      3.024151             -6.574050            -6.466986
| 22>   H                      4.565890             -7.324431            -5.808960
| 23> *
| 24>
| 25> #Run DFT-D3 single point of the molecule with dimer basis set
| 26> $new_job
| 27> %base "18-188_DFT_A"
| 28> ! wB97X-D3 def2-TZVP TIGHTSCF CHELPG PMODEL
| 29>
| 30> %scf
| 31> MaxIter 1000
| 32> end
| 33>
| 34> * xyz 0 1
| 35>   C                      5.145212             -11.023255           -6.473144
| 36>   O                      6.165765             -10.033122           -6.475074
| 37>   H                      6.160345             -9.606264            -7.317652
| 38>   H                      4.241159             -10.711664           -5.988630
| 39>   H                      4.936577             -11.255154           -7.514384
| 40>   H                      5.558417             -11.941200           -6.064285
| 41>   C                    : 4.032736             -6.967960            -6.716628
| 42>   O                    : 3.995714             -7.928267            -7.704090
| 43>   H                    : 4.878147             -8.046026            -8.041079
| 44>   H                    : 4.645797             -6.216006            -7.105603
| 45>   H                    : 3.024151             -6.574050            -6.466986
| 46>   H                    : 4.565890             -7.324431            -5.808960
| 47> *
| 48>
| 49> #Run DFT-D3 single point of the particle with dimer basis set
| 50> $new_job
| 51> %base "18-188_DFT_B"
| 52> ! wB97X-D3 def2-TZVP TIGHTSCF CHELPG PMODEL
| 53>
| 54> %scf
| 55> MaxIter 1000
| 56> end
| 57>
| 58> * xyz 0 1
| 59>   C                    : 5.145212             -11.023255           -6.473144
| 60>   O                    : 6.165765             -10.033122           -6.475074
| 61>   H                    : 6.160345             -9.606264            -7.317652
| 62>   H                    : 4.241159             -10.711664           -5.988630
| 63>   H                    : 4.936577             -11.255154           -7.514384
| 64>   H                    : 5.558417             -11.941200           -6.064285
| 65>   C                      4.032736             -6.967960            -6.716628
| 66>   O                      3.995714             -7.928267            -7.704090
| 67>   H                      4.878147             -8.046026            -8.041079
| 68>   H                      4.645797             -6.216006            -7.105603
| 69>   H                      3.024151             -6.574050            -6.466986
| 70>   H                      4.565890             -7.324431            -5.808960
| 71> *
| 72>
| 73>                          ****END OF INPUT****
 Total Charge           Charge          ....    0
 Multiplicity           Mult            ....    1
 Number of Electrons    NEL             ....   36
Dispersion correction           -0.002088824
FINAL SINGLE POINT ENERGY      -231.465063997555
Dispersion correction           -0.000233327
FINAL SINGLE POINT ENERGY      -115.734449546025

CARTESIAN COORDINATES (ANGSTROEM)
---------------------------------
  C      5.145212  -11.023255   -6.473144
  O      6.165765  -10.033122   -6.475074
  H      6.160345   -9.606264   -7.317652
  H      4.241159  -10.711664   -5.988630
  H      4.936577  -11.255154   -7.514384
  H      5.558417  -11.941200   -6.064285
  C      4.032736   -6.967960   -6.716628
  O      3.995714   -7.928267   -7.704090
  H      4.878147   -8.046026   -8.041079
  H      4.645797   -6.216006   -7.105603
  H      3.024151   -6.574050   -6.466986
  H      4.565890   -7.324431   -5.808960

 Multiplicity           Mult            ....    1
 Number of Electrons    NEL             ....   18
 Basis Dimension        Dim             ....  172

ORBITAL ENERGIES
----------------

  NO   OCC          E(Eh)            E(eV)
   0   2.0000     -19.227832      -523.2159
   1   2.0000     -10.308319      -280.5036
   2   2.0000      -1.150164       -31.2975
   3   2.0000      -0.794721       -21.6255
   4   2.0000      -0.621951       -16.9242
   5   2.0000      -0.545353       -14.8398
   6   2.0000      -0.536707       -14.6045
   7   2.0000      -0.432284       -11.7631
   8   2.0000      -0.368348       -10.0232
   9   0.0000       0.083576         2.2742
  10   0.0000       0.130050         3.5388
  11   0.0000       0.153471         4.1761
  12   0.0000       0.178165         4.8481
  13   0.0000       0.193210         5.2575

MULLIKEN ATOMIC CHARGES
-----------------------
   0 C :   -0.000323
   1 O :   -0.000672
   2 H :   -0.006348
   3 H :   -0.001384
   4 H :   -0.000695
   5 H :   -0.000468
   6 C :   -0.154659
   7 O :   -0.459874
   8 H :    0.316599
   9 H :    0.103480
  10 H :    0.115185
  11 H :    0.089159
Sum of atomic charges:   -0.0000000

LOEWDIN ATOMIC CHARGES
----------------------
   0 C :   -0.006892
   1 O :   -0.002205
   2 H :   -0.006907
   3 H :   -0.001477
   4 H :   -0.000791
   5 H :   -0.000140
   6 C :   -0.406783
   7 O :   -0.036522
   8 H :    0.168871
   9 H :    0.086005
  10 H :    0.112187
  11 H :    0.094655

  Mayer bond orders larger than 0.1
B(  6-C ,  7-O ) :   0.9994 B(  6-C ,  9-H ) :   0.9957 B(  6-C , 10-H ) :   0.9707
B(  6-C , 11-H ) :   0.9715 B(  7-O ,  8-H ) :   0.8978

Dispersion correction           -0.000207513
FINAL SINGLE POINT ENERGY      -115.730844326879

DIPOLE MOMENT
-------------
                                X             Y             Z
Electronic contribution:     -0.29538      -1.22951      -1.25430
Nuclear contribution   :      0.87485       1.55568       1.38715
                        -----------------------------------------
Total Dipole Moment    :      0.57947       0.32617       0.13284
                        -----------------------------------------
Magnitude (a.u.)       :      0.67810
Magnitude (Debye)      :      1.72360

Rotational constants in cm-1:     4.319677     0.877746     0.837202
Rotational constants in MHz : 129500.653839 26314.149298 25098.692068

                             ****ORCA TERMINATED NORMALLY****
TOTAL RUN TIME: 0 days 0 hours 1 minutes 1 seconds 2 msec
