                         Program Version 4.1.2  - RELEASE  -
|  1> #Run DFT-D3 single point of the dimer
|  2> ! wB97X-D3 def2-TZVP TIGHTSCF CHELPG PMODEL PAL8
|  3>
|  4> %base "5-84_DFT_AB"
|  5>
|  6> %scf
|  7> MaxIter 1000
|  8> end
|  9>
| 10> * xyz 0 1
| 11>   C                      7.210825             8.632815             -10.573525
| 12>   O                      6.489195             9.621712             -11.265290
| 13>   H                      5.643977             9.593942             -10.878869
| 14>   H                      8.271137             8.672598             -10.791634
| 15>   H                      7.248490             8.656114             -9.461360
| 16>   H                      6.873795             7.608064             -10.845225
| 17>   C                      4.825682             7.265460             -7.768343
| 18>   O                      5.779126             6.637788             -8.583471
| 19>   H                      5.473405             5.795427             -8.867875
| 20>   H                      3.981013             6.698831             -7.377648
| 21>   H                      5.229040             7.730813             -6.949969
| 22>   H                      4.305574             7.995859             -8.454281
| 23> *
| 24>
| 25> #Run DFT-D3 single point of the molecule with dimer basis set
| 26> $new_job
| 27> %base "5-84_DFT_A"
| 28> ! wB97X-D3 def2-TZVP TIGHTSCF CHELPG PMODEL
| 29>
| 30> %scf
| 31> MaxIter 1000
| 32> end
| 33>
| 34> * xyz 0 1
| 35>   C                      7.210825             8.632815             -10.573525
| 36>   O                      6.489195             9.621712             -11.265290
| 37>   H                      5.643977             9.593942             -10.878869
| 38>   H                      8.271137             8.672598             -10.791634
| 39>   H                      7.248490             8.656114             -9.461360
| 40>   H                      6.873795             7.608064             -10.845225
| 41>   C                    : 4.825682             7.265460             -7.768343
| 42>   O                    : 5.779126             6.637788             -8.583471
| 43>   H                    : 5.473405             5.795427             -8.867875
| 44>   H                    : 3.981013             6.698831             -7.377648
| 45>   H                    : 5.229040             7.730813             -6.949969
| 46>   H                    : 4.305574             7.995859             -8.454281
| 47> *
| 48>
| 49> #Run DFT-D3 single point of the particle with dimer basis set
| 50> $new_job
| 51> %base "5-84_DFT_B"
| 52> ! wB97X-D3 def2-TZVP TIGHTSCF CHELPG PMODEL
| 53>
| 54> %scf
| 55> MaxIter 1000
| 56> end
| 57>
| 58> * xyz 0 1
| 59>   C                    : 7.210825             8.632815             -10.573525
| 60>   O                    : 6.489195             9.621712             -11.265290
| 61>   H                    : 5.643977             9.593942             -10.878869
| 62>   H                    : 8.271137             8.672598             -10.791634
| 63>   H                    : 7.248490             8.656114             -9.461360
| 64>   H                    : 6.873795             7.608064             -10.845225
| 65>   C                      4.825682             7.265460             -7.768343
| 66>   O                      5.779126             6.637788             -8.583471
| 67>   H                      5.473405             5.795427             -8.867875
| 68>   H                      3.981013             6.698831             -7.377648
| 69>   H                      5.229040             7.730813             -6.949969
| 70>   H                      4.305574             7.995859             -8.454281
| 71> *
| 72>
| 73>                          ****END OF INPUT****
 Total Charge           Charge          ....    0
 Multiplicity           Mult            ....    1
 Number of Electrons    NEL             ....   36
Dispersion correction           -0.002009385
FINAL SINGLE POINT ENERGY      -231.460582661227
Dispersion correction           -0.000252767
FINAL SINGLE POINT ENERGY      -115.732297222648

CARTESIAN COORDINATES (ANGSTROEM)
---------------------------------
  C      7.210825    8.632815  -10.573525
  O      6.489195    9.621712  -11.265290
  H      5.643977    9.593942  -10.878869
  H      8.271137    8.672598  -10.791634
  H      7.248490    8.656114   -9.461360
  H      6.873795    7.608064  -10.845225
  C      4.825682    7.265460   -7.768343
  O      5.779126    6.637788   -8.583471
  H      5.473405    5.795427   -8.867875
  H      3.981013    6.698831   -7.377648
  H      5.229040    7.730813   -6.949969
  H      4.305574    7.995859   -8.454281

 Multiplicity           Mult            ....    1
 Number of Electrons    NEL             ....   18
 Basis Dimension        Dim             ....  172

ORBITAL ENERGIES
----------------

  NO   OCC          E(Eh)            E(eV)
   0   2.0000     -19.229533      -523.2622
   1   2.0000     -10.307473      -280.4806
   2   2.0000      -1.142723       -31.0951
   3   2.0000      -0.804050       -21.8793
   4   2.0000      -0.621396       -16.9091
   5   2.0000      -0.551823       -15.0159
   6   2.0000      -0.518679       -14.1140
   7   2.0000      -0.435820       -11.8593
   8   2.0000      -0.371092       -10.0979
   9   0.0000       0.096663         2.6303
  10   0.0000       0.130946         3.5632
  11   0.0000       0.150632         4.0989
  12   0.0000       0.173467         4.7203
  13   0.0000       0.195732         5.3261

MULLIKEN ATOMIC CHARGES
-----------------------
   0 C :    0.013089
   1 O :   -0.000394
   2 H :   -0.000502
   3 H :   -0.000855
   4 H :   -0.004331
   5 H :   -0.011941
   6 C :   -0.174024
   7 O :   -0.468362
   8 H :    0.314254
   9 H :    0.109749
  10 H :    0.123594
  11 H :    0.099721
Sum of atomic charges:    0.0000000

LOEWDIN ATOMIC CHARGES
----------------------
   0 C :   -0.013326
   1 O :   -0.000045
   2 H :   -0.000354
   3 H :   -0.000141
   4 H :   -0.005437
   5 H :   -0.007559
   6 C :   -0.387328
   7 O :   -0.035593
   8 H :    0.157297
   9 H :    0.098053
  10 H :    0.087570
  11 H :    0.106864

  Mayer bond orders larger than 0.1
B(  6-C ,  7-O ) :   0.9991 B(  6-C ,  9-H ) :   0.9698 B(  6-C , 10-H ) :   0.9738
B(  6-C , 11-H ) :   0.9869 B(  7-O ,  8-H ) :   0.8997

Dispersion correction           -0.000251494
FINAL SINGLE POINT ENERGY      -115.727430701351

DIPOLE MOMENT
-------------
                                X             Y             Z
Electronic contribution:      1.44764      -0.82014      -0.88073
Nuclear contribution   :     -2.03660       0.48221       1.04888
                        -----------------------------------------
Total Dipole Moment    :     -0.58896      -0.33793       0.16815
                        -----------------------------------------
Magnitude (a.u.)       :      0.69953
Magnitude (Debye)      :      1.77807

Rotational constants in cm-1:     4.548854     0.831259     0.811489
Rotational constants in MHz : 136371.210546 24920.529629 24327.828111

                             ****ORCA TERMINATED NORMALLY****
TOTAL RUN TIME: 0 days 0 hours 1 minutes 3 seconds 711 msec
