                         Program Version 4.1.2  - RELEASE  -
|  1> #Run DFT-D3 single point of the dimer
|  2> ! wB97X-D3 def2-TZVP TIGHTSCF CHELPG PMODEL PAL8
|  3>
|  4> %base "11-203_DFT_AB"
|  5>
|  6> %scf
|  7> MaxIter 1000
|  8> end
|  9>
| 10> * xyz 0 1
| 11>   C                      -5.044066            0.404302             -1.663991
| 12>   O                      -6.434132            0.548854             -1.331317
| 13>   H                      -6.609572            0.645943             -0.347889
| 14>   H                      -4.488674            1.043460             -0.975449
| 15>   H                      -4.723905            -0.685298            -1.583405
| 16>   H                      -4.810426            0.769304             -2.685732
| 17>   C                      -9.370355            2.982421             -1.130286
| 18>   O                      -8.060831            2.716700             -0.738364
| 19>   H                      -7.797640            1.912203             -1.195210
| 20>   H                      -9.629942            2.462840             -2.071195
| 21>   H                      -10.114855           2.628072             -0.451375
| 22>   H                      -9.582202            4.031527             -1.361701
| 23> *
| 24>
| 25> #Run DFT-D3 single point of the molecule with dimer basis set
| 26> $new_job
| 27> %base "11-203_DFT_A"
| 28> ! wB97X-D3 def2-TZVP TIGHTSCF CHELPG PMODEL
| 29>
| 30> %scf
| 31> MaxIter 1000
| 32> end
| 33>
| 34> * xyz 0 1
| 35>   C                      -5.044066            0.404302             -1.663991
| 36>   O                      -6.434132            0.548854             -1.331317
| 37>   H                      -6.609572            0.645943             -0.347889
| 38>   H                      -4.488674            1.043460             -0.975449
| 39>   H                      -4.723905            -0.685298            -1.583405
| 40>   H                      -4.810426            0.769304             -2.685732
| 41>   C                    : -9.370355            2.982421             -1.130286
| 42>   O                    : -8.060831            2.716700             -0.738364
| 43>   H                    : -7.797640            1.912203             -1.195210
| 44>   H                    : -9.629942            2.462840             -2.071195
| 45>   H                    : -10.114855           2.628072             -0.451375
| 46>   H                    : -9.582202            4.031527             -1.361701
| 47> *
| 48>
| 49> #Run DFT-D3 single point of the particle with dimer basis set
| 50> $new_job
| 51> %base "11-203_DFT_B"
| 52> ! wB97X-D3 def2-TZVP TIGHTSCF CHELPG PMODEL
| 53>
| 54> %scf
| 55> MaxIter 1000
| 56> end
| 57>
| 58> * xyz 0 1
| 59>   C                    : -5.044066            0.404302             -1.663991
| 60>   O                    : -6.434132            0.548854             -1.331317
| 61>   H                    : -6.609572            0.645943             -0.347889
| 62>   H                    : -4.488674            1.043460             -0.975449
| 63>   H                    : -4.723905            -0.685298            -1.583405
| 64>   H                    : -4.810426            0.769304             -2.685732
| 65>   C                      -9.370355            2.982421             -1.130286
| 66>   O                      -8.060831            2.716700             -0.738364
| 67>   H                      -7.797640            1.912203             -1.195210
| 68>   H                      -9.629942            2.462840             -2.071195
| 69>   H                      -10.114855           2.628072             -0.451375
| 70>   H                      -9.582202            4.031527             -1.361701
| 71> *
| 72>
| 73>                          ****END OF INPUT****
 Total Charge           Charge          ....    0
 Multiplicity           Mult            ....    1
 Number of Electrons    NEL             ....   36
Dispersion correction           -0.001471207
FINAL SINGLE POINT ENERGY      -231.470680289282
Dispersion correction           -0.000268001
FINAL SINGLE POINT ENERGY      -115.730788105549

CARTESIAN COORDINATES (ANGSTROEM)
---------------------------------
  C     -5.044066    0.404302   -1.663991
  O     -6.434132    0.548854   -1.331317
  H     -6.609572    0.645943   -0.347889
  H     -4.488674    1.043460   -0.975449
  H     -4.723905   -0.685298   -1.583405
  H     -4.810426    0.769304   -2.685732
  C     -9.370355    2.982421   -1.130286
  O     -8.060831    2.716700   -0.738364
  H     -7.797640    1.912203   -1.195210
  H     -9.629942    2.462840   -2.071195
  H    -10.114855    2.628072   -0.451375
  H     -9.582202    4.031527   -1.361701

 Multiplicity           Mult            ....    1
 Number of Electrons    NEL             ....   18
 Basis Dimension        Dim             ....  172

ORBITAL ENERGIES
----------------

  NO   OCC          E(Eh)            E(eV)
   0   2.0000     -19.234381      -523.3941
   1   2.0000     -10.309841      -280.5450
   2   2.0000      -1.145479       -31.1701
   3   2.0000      -0.796926       -21.6855
   4   2.0000      -0.619124       -16.8472
   5   2.0000      -0.545021       -14.8308
   6   2.0000      -0.531117       -14.4524
   7   2.0000      -0.429968       -11.7000
   8   2.0000      -0.376532       -10.2460
   9   0.0000       0.078177         2.1273
  10   0.0000       0.124080         3.3764
  11   0.0000       0.151589         4.1249
  12   0.0000       0.178719         4.8632
  13   0.0000       0.196155         5.3377

MULLIKEN ATOMIC CHARGES
-----------------------
   0 C :   -0.000643
   1 O :   -0.000753
   2 H :   -0.004521
   3 H :   -0.000010
   4 H :    0.000025
   5 H :   -0.000071
   6 C :   -0.170806
   7 O :   -0.454672
   8 H :    0.319177
   9 H :    0.094368
  10 H :    0.105719
  11 H :    0.112186
Sum of atomic charges:   -0.0000000

LOEWDIN ATOMIC CHARGES
----------------------
   0 C :   -0.001813
   1 O :   -0.020059
   2 H :   -0.009141
   3 H :   -0.000081
   4 H :   -0.000042
   5 H :   -0.000096
   6 C :   -0.404514
   7 O :   -0.044730
   8 H :    0.188342
   9 H :    0.098176
  10 H :    0.089947
  11 H :    0.104009

  Mayer bond orders larger than 0.1
B(  6-C ,  7-O ) :   1.0185 B(  6-C ,  9-H ) :   0.9920 B(  6-C , 10-H ) :   0.9717
B(  6-C , 11-H ) :   0.9728 B(  7-O ,  8-H ) :   0.8948

Dispersion correction           -0.000240702
FINAL SINGLE POINT ENERGY      -115.733332445306

DIPOLE MOMENT
-------------
                                X             Y             Z
Electronic contribution:      1.81079      -0.17852       0.72487
Nuclear contribution   :     -2.15162      -0.23769      -1.18912
                        -----------------------------------------
Total Dipole Moment    :     -0.34083      -0.41621      -0.46425
                        -----------------------------------------
Magnitude (a.u.)       :      0.71058
Magnitude (Debye)      :      1.80614

Rotational constants in cm-1:     4.446079     0.843757     0.813464
Rotational constants in MHz : 133290.091490 25295.204363 24387.049716

                             ****ORCA TERMINATED NORMALLY****
TOTAL RUN TIME: 0 days 0 hours 1 minutes 6 seconds 230 msec
