                         Program Version 4.1.2  - RELEASE  -
|  1> #Run DFT-D3 single point of the dimer
|  2> ! wB97X-D3 def2-TZVP TIGHTSCF CHELPG PMODEL PAL8
|  3>
|  4> %base "12-143_DFT_AB"
|  5>
|  6> %scf
|  7> MaxIter 1000
|  8> end
|  9>
| 10> * xyz 0 1
| 11>   C                      0.089987             -3.422612            -0.634549
| 12>   O                      0.445780             -4.147892            -1.754119
| 13>   H                      0.889978             -3.509935            -2.357126
| 14>   H                      -1.004363            -3.350308            -0.387464
| 15>   H                      0.526002             -3.938563            0.227510
| 16>   H                      0.405570             -2.373225            -0.646882
| 17>   C                      -0.727275            1.563052             -0.967298
| 18>   O                      0.096966             0.363734             -0.938946
| 19>   H                      0.008853             -0.073685            -1.808591
| 20>   H                      -1.797823            1.336049             -1.111129
| 21>   H                      -0.641607            2.169287             -0.038777
| 22>   H                      -0.399857            2.277220             -1.734787
| 23> *
| 24>
| 25> #Run DFT-D3 single point of the molecule with dimer basis set
| 26> $new_job
| 27> %base "12-143_DFT_A"
| 28> ! wB97X-D3 def2-TZVP TIGHTSCF CHELPG PMODEL
| 29>
| 30> %scf
| 31> MaxIter 1000
| 32> end
| 33>
| 34> * xyz 0 1
| 35>   C                      0.089987             -3.422612            -0.634549
| 36>   O                      0.445780             -4.147892            -1.754119
| 37>   H                      0.889978             -3.509935            -2.357126
| 38>   H                      -1.004363            -3.350308            -0.387464
| 39>   H                      0.526002             -3.938563            0.227510
| 40>   H                      0.405570             -2.373225            -0.646882
| 41>   C                    : -0.727275            1.563052             -0.967298
| 42>   O                    : 0.096966             0.363734             -0.938946
| 43>   H                    : 0.008853             -0.073685            -1.808591
| 44>   H                    : -1.797823            1.336049             -1.111129
| 45>   H                    : -0.641607            2.169287             -0.038777
| 46>   H                    : -0.399857            2.277220             -1.734787
| 47> *
| 48>
| 49> #Run DFT-D3 single point of the particle with dimer basis set
| 50> $new_job
| 51> %base "12-143_DFT_B"
| 52> ! wB97X-D3 def2-TZVP TIGHTSCF CHELPG PMODEL
| 53>
| 54> %scf
| 55> MaxIter 1000
| 56> end
| 57>
| 58> * xyz 0 1
| 59>   C                    : 0.089987             -3.422612            -0.634549
| 60>   O                    : 0.445780             -4.147892            -1.754119
| 61>   H                    : 0.889978             -3.509935            -2.357126
| 62>   H                    : -1.004363            -3.350308            -0.387464
| 63>   H                    : 0.526002             -3.938563            0.227510
| 64>   H                    : 0.405570             -2.373225            -0.646882
| 65>   C                      -0.727275            1.563052             -0.967298
| 66>   O                      0.096966             0.363734             -0.938946
| 67>   H                      0.008853             -0.073685            -1.808591
| 68>   H                      -1.797823            1.336049             -1.111129
| 69>   H                      -0.641607            2.169287             -0.038777
| 70>   H                      -0.399857            2.277220             -1.734787
| 71> *
| 72>
| 73>                          ****END OF INPUT****
 Total Charge           Charge          ....    0
 Multiplicity           Mult            ....    1
 Number of Electrons    NEL             ....   36
Dispersion correction           -0.001281783
FINAL SINGLE POINT ENERGY      -231.465835161426
Dispersion correction           -0.000248658
FINAL SINGLE POINT ENERGY      -115.731033418783

CARTESIAN COORDINATES (ANGSTROEM)
---------------------------------
  C      0.089987   -3.422612   -0.634549
  O      0.445780   -4.147892   -1.754119
  H      0.889978   -3.509935   -2.357126
  H     -1.004363   -3.350308   -0.387464
  H      0.526002   -3.938563    0.227510
  H      0.405570   -2.373225   -0.646882
  C     -0.727275    1.563052   -0.967298
  O      0.096966    0.363734   -0.938946
  H      0.008853   -0.073685   -1.808591
  H     -1.797823    1.336049   -1.111129
  H     -0.641607    2.169287   -0.038777
  H     -0.399857    2.277220   -1.734787

 Multiplicity           Mult            ....    1
 Number of Electrons    NEL             ....   18
 Basis Dimension        Dim             ....  172

ORBITAL ENERGIES
----------------

  NO   OCC          E(Eh)            E(eV)
   0   2.0000     -19.234795      -523.4054
   1   2.0000     -10.320606      -280.8380
   2   2.0000      -1.122027       -30.5319
   3   2.0000      -0.794931       -21.6312
   4   2.0000      -0.600455       -16.3392
   5   2.0000      -0.538838       -14.6625
   6   2.0000      -0.520702       -14.1690
   7   2.0000      -0.433292       -11.7905
   8   2.0000      -0.377243       -10.2653
   9   0.0000       0.086595         2.3564
  10   0.0000       0.124353         3.3838
  11   0.0000       0.147699         4.0191
  12   0.0000       0.168185         4.5765
  13   0.0000       0.199696         5.4340

MULLIKEN ATOMIC CHARGES
-----------------------
   0 C :   -0.000067
   1 O :    0.000052
   2 H :   -0.000018
   3 H :   -0.000050
   4 H :   -0.000372
   5 H :   -0.006385
   6 C :   -0.187824
   7 O :   -0.472450
   8 H :    0.319174
   9 H :    0.111212
  10 H :    0.126391
  11 H :    0.110336
Sum of atomic charges:    0.0000000

LOEWDIN ATOMIC CHARGES
----------------------
   0 C :   -0.002912
   1 O :   -0.000024
   2 H :   -0.000058
   3 H :   -0.000220
   4 H :   -0.000031
   5 H :   -0.006171
   6 C :   -0.367665
   7 O :   -0.107607
   8 H :    0.177962
   9 H :    0.097313
  10 H :    0.113001
  11 H :    0.096410

  Mayer bond orders larger than 0.1
B(  6-C ,  7-O ) :   0.9930 B(  6-C ,  9-H ) :   0.9720 B(  6-C , 10-H ) :   0.9730
B(  6-C , 11-H ) :   0.9724 B(  7-O ,  8-H ) :   0.8938

Dispersion correction           -0.000273636
FINAL SINGLE POINT ENERGY      -115.733979266223

DIPOLE MOMENT
-------------
                                X             Y             Z
Electronic contribution:      1.08243      -1.54018       0.17659
Nuclear contribution   :     -1.47386       1.79302      -0.72839
                        -----------------------------------------
Total Dipole Moment    :     -0.39143       0.25285      -0.55180
                        -----------------------------------------
Magnitude (a.u.)       :      0.72224
Magnitude (Debye)      :      1.83578

Rotational constants in cm-1:     4.281722     0.781134     0.757064
Rotational constants in MHz : 128362.803249 23417.810073 22696.210214

                             ****ORCA TERMINATED NORMALLY****
TOTAL RUN TIME: 0 days 0 hours 1 minutes 14 seconds 685 msec
