                         Program Version 4.1.2  - RELEASE  -
|  1> #Run DFT-D3 single point of the dimer
|  2> ! wB97X-D3 def2-TZVP TIGHTSCF CHELPG PMODEL PAL8
|  3>
|  4> %base "1-54_DFT_AB"
|  5>
|  6> %scf
|  7> MaxIter 1000
|  8> end
|  9>
| 10> * xyz 0 1
| 11>   C                      -2.795325            9.217840             5.555766
| 12>   O                      -3.946272            9.686863             6.213946
| 13>   H                      -3.969267            9.351075             7.120477
| 14>   H                      -2.991524            9.209093             4.464861
| 15>   H                      -1.885058            9.769403             5.855998
| 16>   H                      -2.593840            8.207868             5.831886
| 17>   C                      -0.021919            8.009453             2.783988
| 18>   O                      -0.528219            7.199774             3.833651
| 19>   H                      0.125578             6.504699             4.084652
| 20>   H                      0.915588             8.444604             3.152632
| 21>   H                      0.145282             7.447361             1.830952
| 22>   H                      -0.773289            8.872872             2.476492
| 23> *
| 24>
| 25> #Run DFT-D3 single point of the molecule with dimer basis set
| 26> $new_job
| 27> %base "1-54_DFT_A"
| 28> ! wB97X-D3 def2-TZVP TIGHTSCF CHELPG PMODEL
| 29>
| 30> %scf
| 31> MaxIter 1000
| 32> end
| 33>
| 34> * xyz 0 1
| 35>   C                      -2.795325            9.217840             5.555766
| 36>   O                      -3.946272            9.686863             6.213946
| 37>   H                      -3.969267            9.351075             7.120477
| 38>   H                      -2.991524            9.209093             4.464861
| 39>   H                      -1.885058            9.769403             5.855998
| 40>   H                      -2.593840            8.207868             5.831886
| 41>   C                    : -0.021919            8.009453             2.783988
| 42>   O                    : -0.528219            7.199774             3.833651
| 43>   H                    : 0.125578             6.504699             4.084652
| 44>   H                    : 0.915588             8.444604             3.152632
| 45>   H                    : 0.145282             7.447361             1.830952
| 46>   H                    : -0.773289            8.872872             2.476492
| 47> *
| 48>
| 49> #Run DFT-D3 single point of the particle with dimer basis set
| 50> $new_job
| 51> %base "1-54_DFT_B"
| 52> ! wB97X-D3 def2-TZVP TIGHTSCF CHELPG PMODEL
| 53>
| 54> %scf
| 55> MaxIter 1000
| 56> end
| 57>
| 58> * xyz 0 1
| 59>   C                    : -2.795325            9.217840             5.555766
| 60>   O                    : -3.946272            9.686863             6.213946
| 61>   H                    : -3.969267            9.351075             7.120477
| 62>   H                    : -2.991524            9.209093             4.464861
| 63>   H                    : -1.885058            9.769403             5.855998
| 64>   H                    : -2.593840            8.207868             5.831886
| 65>   C                      -0.021919            8.009453             2.783988
| 66>   O                      -0.528219            7.199774             3.833651
| 67>   H                      0.125578             6.504699             4.084652
| 68>   H                      0.915588             8.444604             3.152632
| 69>   H                      0.145282             7.447361             1.830952
| 70>   H                      -0.773289            8.872872             2.476492
| 71> *
| 72>
| 73>                          ****END OF INPUT****
 Total Charge           Charge          ....    0
 Multiplicity           Mult            ....    1
 Number of Electrons    NEL             ....   36
Dispersion correction           -0.001584994
FINAL SINGLE POINT ENERGY      -231.465798867807
Dispersion correction           -0.000237326
FINAL SINGLE POINT ENERGY      -115.734606576411

CARTESIAN COORDINATES (ANGSTROEM)
---------------------------------
  C     -2.795325    9.217840    5.555766
  O     -3.946272    9.686863    6.213946
  H     -3.969267    9.351075    7.120477
  H     -2.991524    9.209093    4.464861
  H     -1.885058    9.769403    5.855998
  H     -2.593840    8.207868    5.831886
  C     -0.021919    8.009453    2.783988
  O     -0.528219    7.199774    3.833651
  H      0.125578    6.504699    4.084652
  H      0.915588    8.444604    3.152632
  H      0.145282    7.447361    1.830952
  H     -0.773289    8.872872    2.476492

 Multiplicity           Mult            ....    1
 Number of Electrons    NEL             ....   18
 Basis Dimension        Dim             ....  172

ORBITAL ENERGIES
----------------

  NO   OCC          E(Eh)            E(eV)
   0   2.0000     -19.232029      -523.3301
   1   2.0000     -10.326581      -281.0006
   2   2.0000      -1.128933       -30.7198
   3   2.0000      -0.785040       -21.3620
   4   2.0000      -0.604492       -16.4491
   5   2.0000      -0.544355       -14.8126
   6   2.0000      -0.517791       -14.0898
   7   2.0000      -0.422906       -11.5079
   8   2.0000      -0.372579       -10.1384
   9   0.0000       0.094392         2.5685
  10   0.0000       0.118454         3.2233
  11   0.0000       0.143804         3.9131
  12   0.0000       0.174113         4.7378
  13   0.0000       0.197185         5.3657

MULLIKEN ATOMIC CHARGES
-----------------------
   0 C :    0.005554
   1 O :   -0.000094
   2 H :   -0.000021
   3 H :   -0.001658
   4 H :   -0.001934
   5 H :   -0.005366
   6 C :   -0.162421
   7 O :   -0.477459
   8 H :    0.316764
   9 H :    0.104372
  10 H :    0.104046
  11 H :    0.118218
Sum of atomic charges:   -0.0000000

LOEWDIN ATOMIC CHARGES
----------------------
   0 C :   -0.006242
   1 O :   -0.000037
   2 H :   -0.000005
   3 H :   -0.000966
   4 H :   -0.000595
   5 H :   -0.003379
   6 C :   -0.396736
   7 O :   -0.090013
   8 H :    0.183239
   9 H :    0.094237
  10 H :    0.096434
  11 H :    0.124064

  Mayer bond orders larger than 0.1
B(  6-C ,  7-O ) :   0.9889 B(  6-C ,  9-H ) :   0.9825 B(  6-C , 10-H ) :   0.9665
B(  6-C , 11-H ) :   0.9678 B(  7-O ,  8-H ) :   0.8898

Dispersion correction           -0.000261686
FINAL SINGLE POINT ENERGY      -115.729332615042

DIPOLE MOMENT
-------------
                                X             Y             Z
Electronic contribution:     -0.72940      -1.00712       1.36108
Nuclear contribution   :      1.35546       0.88144      -1.62401
                        -----------------------------------------
Total Dipole Moment    :      0.62606      -0.12568      -0.26292
                        -----------------------------------------
Magnitude (a.u.)       :      0.69056
Magnitude (Debye)      :      1.75526

Rotational constants in cm-1:     4.067474     0.813698     0.782873
Rotational constants in MHz : 121939.794877 24394.065683 23469.928170

                             ****ORCA TERMINATED NORMALLY****
TOTAL RUN TIME: 0 days 0 hours 5 minutes 47 seconds 153 msec
