                         Program Version 4.1.2  - RELEASE  -
|  1> #Run DFT-D3 single point of the dimer
|  2> ! wB97X-D3 def2-TZVP TIGHTSCF CHELPG PMODEL PAL8
|  3>
|  4> %base "13-94_DFT_AB"
|  5>
|  6> %scf
|  7> MaxIter 1000
|  8> end
|  9>
| 10> * xyz 0 1
| 11>   C                      8.560098             -2.673546            8.422270
| 12>   O                      8.250090             -2.701109            9.788705
| 13>   H                      8.844717             -3.285811            10.224851
| 14>   H                      9.658630             -2.494390            8.335668
| 15>   H                      8.219889             -3.530177            7.895463
| 16>   H                      8.112362             -1.780007            7.980744
| 17>   C                      3.154747             -1.537589            10.018817
| 18>   O                      2.002198             -1.825710            9.280145
| 19>   H                      2.051071             -1.419218            8.388134
| 20>   H                      4.096436             -1.740838            9.439830
| 21>   H                      3.159639             -0.485921            10.290562
| 22>   H                      3.143210             -2.149505            10.924553
| 23> *
| 24>
| 25> #Run DFT-D3 single point of the molecule with dimer basis set
| 26> $new_job
| 27> %base "13-94_DFT_A"
| 28> ! wB97X-D3 def2-TZVP TIGHTSCF CHELPG PMODEL
| 29>
| 30> %scf
| 31> MaxIter 1000
| 32> end
| 33>
| 34> * xyz 0 1
| 35>   C                      8.560098             -2.673546            8.422270
| 36>   O                      8.250090             -2.701109            9.788705
| 37>   H                      8.844717             -3.285811            10.224851
| 38>   H                      9.658630             -2.494390            8.335668
| 39>   H                      8.219889             -3.530177            7.895463
| 40>   H                      8.112362             -1.780007            7.980744
| 41>   C                    : 3.154747             -1.537589            10.018817
| 42>   O                    : 2.002198             -1.825710            9.280145
| 43>   H                    : 2.051071             -1.419218            8.388134
| 44>   H                    : 4.096436             -1.740838            9.439830
| 45>   H                    : 3.159639             -0.485921            10.290562
| 46>   H                    : 3.143210             -2.149505            10.924553
| 47> *
| 48>
| 49> #Run DFT-D3 single point of the particle with dimer basis set
| 50> $new_job
| 51> %base "13-94_DFT_B"
| 52> ! wB97X-D3 def2-TZVP TIGHTSCF CHELPG PMODEL
| 53>
| 54> %scf
| 55> MaxIter 1000
| 56> end
| 57>
| 58> * xyz 0 1
| 59>   C                    : 8.560098             -2.673546            8.422270
| 60>   O                    : 8.250090             -2.701109            9.788705
| 61>   H                    : 8.844717             -3.285811            10.224851
| 62>   H                    : 9.658630             -2.494390            8.335668
| 63>   H                    : 8.219889             -3.530177            7.895463
| 64>   H                    : 8.112362             -1.780007            7.980744
| 65>   C                      3.154747             -1.537589            10.018817
| 66>   O                      2.002198             -1.825710            9.280145
| 67>   H                      2.051071             -1.419218            8.388134
| 68>   H                      4.096436             -1.740838            9.439830
| 69>   H                      3.159639             -0.485921            10.290562
| 70>   H                      3.143210             -2.149505            10.924553
| 71> *
| 72>
| 73>                          ****END OF INPUT****
 Total Charge           Charge          ....    0
 Multiplicity           Mult            ....    1
 Number of Electrons    NEL             ....   36
Dispersion correction           -0.000635586
FINAL SINGLE POINT ENERGY      -231.470845143463
Dispersion correction           -0.000226227
FINAL SINGLE POINT ENERGY      -115.734498198048

CARTESIAN COORDINATES (ANGSTROEM)
---------------------------------
  C      8.560098   -2.673546    8.422270
  O      8.250090   -2.701109    9.788705
  H      8.844717   -3.285811   10.224851
  H      9.658630   -2.494390    8.335668
  H      8.219889   -3.530177    7.895463
  H      8.112362   -1.780007    7.980744
  C      3.154747   -1.537589   10.018817
  O      2.002198   -1.825710    9.280145
  H      2.051071   -1.419218    8.388134
  H      4.096436   -1.740838    9.439830
  H      3.159639   -0.485921   10.290562
  H      3.143210   -2.149505   10.924553

 Multiplicity           Mult            ....    1
 Number of Electrons    NEL             ....   18
 Basis Dimension        Dim             ....  172

ORBITAL ENERGIES
----------------

  NO   OCC          E(Eh)            E(eV)
   0   2.0000     -19.229564      -523.2630
   1   2.0000     -10.313507      -280.6448
   2   2.0000      -1.134753       -30.8782
   3   2.0000      -0.791500       -21.5378
   4   2.0000      -0.610427       -16.6106
   5   2.0000      -0.540932       -14.7195
   6   2.0000      -0.528971       -14.3940
   7   2.0000      -0.429751       -11.6941
   8   2.0000      -0.370008       -10.0684
   9   0.0000       0.082543         2.2461
  10   0.0000       0.113395         3.0856
  11   0.0000       0.150549         4.0966
  12   0.0000       0.163589         4.4515
  13   0.0000       0.181247         4.9320

MULLIKEN ATOMIC CHARGES
-----------------------
   0 C :   -0.000076
   1 O :    0.000011
   2 H :    0.000001
   3 H :   -0.000004
   4 H :    0.000004
   5 H :   -0.000039
   6 C :   -0.149967
   7 O :   -0.482064
   8 H :    0.318137
   9 H :    0.095791
  10 H :    0.099390
  11 H :    0.118817
Sum of atomic charges:   -0.0000000

LOEWDIN ATOMIC CHARGES
----------------------
   0 C :   -0.000100
   1 O :   -0.000023
   2 H :   -0.000002
   3 H :   -0.000002
   4 H :   -0.000004
   5 H :   -0.000033
   6 C :   -0.398469
   7 O :   -0.080090
   8 H :    0.181048
   9 H :    0.097802
  10 H :    0.091171
  11 H :    0.108703

  Mayer bond orders larger than 0.1
B(  6-C ,  7-O ) :   0.9990 B(  6-C ,  9-H ) :   0.9763 B(  6-C , 10-H ) :   0.9771
B(  6-C , 11-H ) :   0.9715 B(  7-O ,  8-H ) :   0.8922

Dispersion correction           -0.000238558
FINAL SINGLE POINT ENERGY      -115.735918723440

DIPOLE MOMENT
-------------
                                X             Y             Z
Electronic contribution:     -1.53874      -0.45979      -0.80176
Nuclear contribution   :      2.01286       0.82862       0.53260
                        -----------------------------------------
Total Dipole Moment    :      0.47412       0.36882      -0.26917
                        -----------------------------------------
Magnitude (a.u.)       :      0.65824
Magnitude (Debye)      :      1.67310

Rotational constants in cm-1:     4.210256     0.844931     0.811271
Rotational constants in MHz : 126220.305148 25330.407466 24321.283147

                             ****ORCA TERMINATED NORMALLY****
TOTAL RUN TIME: 0 days 0 hours 1 minutes 4 seconds 771 msec
