                         Program Version 4.1.2  - RELEASE  -
|  1> #Run DFT-D3 single point of the dimer
|  2> ! wB97X-D3 def2-TZVP TIGHTSCF CHELPG PMODEL PAL8
|  3>
|  4> %base "15-34_DFT_AB"
|  5>
|  6> %scf
|  7> MaxIter 1000
|  8> end
|  9>
| 10> * xyz 0 1
| 11>   C                      -6.215711            8.702306             -1.753921
| 12>   O                      -6.204522            7.278721             -1.947713
| 13>   H                      -7.104918            7.064609             -2.073756
| 14>   H                      -5.527617            9.106006             -0.946702
| 15>   H                      -5.940116            9.260479             -2.642426
| 16>   H                      -7.167443            9.114555             -1.494518
| 17>   C                      -7.981645            7.968449             2.554353
| 18>   O                      -7.352871            7.303893             1.477125
| 19>   H                      -6.428532            7.589346             1.516940
| 20>   H                      -8.074758            9.059572             2.456553
| 21>   H                      -8.998607            7.648953             2.752665
| 22>   H                      -7.425151            7.825328             3.456174
| 23> *
| 24>
| 25> #Run DFT-D3 single point of the molecule with dimer basis set
| 26> $new_job
| 27> %base "15-34_DFT_A"
| 28> ! wB97X-D3 def2-TZVP TIGHTSCF CHELPG PMODEL
| 29>
| 30> %scf
| 31> MaxIter 1000
| 32> end
| 33>
| 34> * xyz 0 1
| 35>   C                      -6.215711            8.702306             -1.753921
| 36>   O                      -6.204522            7.278721             -1.947713
| 37>   H                      -7.104918            7.064609             -2.073756
| 38>   H                      -5.527617            9.106006             -0.946702
| 39>   H                      -5.940116            9.260479             -2.642426
| 40>   H                      -7.167443            9.114555             -1.494518
| 41>   C                    : -7.981645            7.968449             2.554353
| 42>   O                    : -7.352871            7.303893             1.477125
| 43>   H                    : -6.428532            7.589346             1.516940
| 44>   H                    : -8.074758            9.059572             2.456553
| 45>   H                    : -8.998607            7.648953             2.752665
| 46>   H                    : -7.425151            7.825328             3.456174
| 47> *
| 48>
| 49> #Run DFT-D3 single point of the particle with dimer basis set
| 50> $new_job
| 51> %base "15-34_DFT_B"
| 52> ! wB97X-D3 def2-TZVP TIGHTSCF CHELPG PMODEL
| 53>
| 54> %scf
| 55> MaxIter 1000
| 56> end
| 57>
| 58> * xyz 0 1
| 59>   C                    : -6.215711            8.702306             -1.753921
| 60>   O                    : -6.204522            7.278721             -1.947713
| 61>   H                    : -7.104918            7.064609             -2.073756
| 62>   H                    : -5.527617            9.106006             -0.946702
| 63>   H                    : -5.940116            9.260479             -2.642426
| 64>   H                    : -7.167443            9.114555             -1.494518
| 65>   C                      -7.981645            7.968449             2.554353
| 66>   O                      -7.352871            7.303893             1.477125
| 67>   H                      -6.428532            7.589346             1.516940
| 68>   H                      -8.074758            9.059572             2.456553
| 69>   H                      -8.998607            7.648953             2.752665
| 70>   H                      -7.425151            7.825328             3.456174
| 71> *
| 72>
| 73>                          ****END OF INPUT****
 Total Charge           Charge          ....    0
 Multiplicity           Mult            ....    1
 Number of Electrons    NEL             ....   36
Dispersion correction           -0.001497443
FINAL SINGLE POINT ENERGY      -231.465918821558
Dispersion correction           -0.000266581
FINAL SINGLE POINT ENERGY      -115.730089178882

CARTESIAN COORDINATES (ANGSTROEM)
---------------------------------
  C     -6.215711    8.702306   -1.753921
  O     -6.204522    7.278721   -1.947713
  H     -7.104918    7.064609   -2.073756
  H     -5.527617    9.106006   -0.946702
  H     -5.940116    9.260479   -2.642426
  H     -7.167443    9.114555   -1.494518
  C     -7.981645    7.968449    2.554353
  O     -7.352871    7.303893    1.477125
  H     -6.428532    7.589346    1.516940
  H     -8.074758    9.059572    2.456553
  H     -8.998607    7.648953    2.752665
  H     -7.425151    7.825328    3.456174

 Multiplicity           Mult            ....    1
 Number of Electrons    NEL             ....   18
 Basis Dimension        Dim             ....  172

ORBITAL ENERGIES
----------------

  NO   OCC          E(Eh)            E(eV)
   0   2.0000     -19.235672      -523.4293
   1   2.0000     -10.310461      -280.5619
   2   2.0000      -1.138837       -30.9893
   3   2.0000      -0.798448       -21.7269
   4   2.0000      -0.613410       -16.6917
   5   2.0000      -0.541281       -14.7290
   6   2.0000      -0.529683       -14.4134
   7   2.0000      -0.438921       -11.9436
   8   2.0000      -0.374773       -10.1981
   9   0.0000       0.084804         2.3076
  10   0.0000       0.125889         3.4256
  11   0.0000       0.151582         4.1247
  12   0.0000       0.174027         4.7355
  13   0.0000       0.194205         5.2846

MULLIKEN ATOMIC CHARGES
-----------------------
   0 C :   -0.003265
   1 O :    0.000543
   2 H :   -0.000505
   3 H :   -0.001466
   4 H :   -0.000549
   5 H :   -0.001264
   6 C :   -0.175605
   7 O :   -0.463667
   8 H :    0.320092
   9 H :    0.099420
  10 H :    0.119263
  11 H :    0.107004
Sum of atomic charges:   -0.0000000

LOEWDIN ATOMIC CHARGES
----------------------
   0 C :   -0.005262
   1 O :   -0.000527
   2 H :   -0.000814
   3 H :   -0.000943
   4 H :   -0.000120
   5 H :   -0.001114
   6 C :   -0.390722
   7 O :   -0.070665
   8 H :    0.178479
   9 H :    0.094545
  10 H :    0.106457
  11 H :    0.090686

  Mayer bond orders larger than 0.1
B(  6-C ,  7-O ) :   1.0042 B(  6-C ,  9-H ) :   0.9701 B(  6-C , 10-H ) :   0.9743
B(  6-C , 11-H ) :   0.9837 B(  7-O ,  8-H ) :   0.8954

Dispersion correction           -0.000238874
FINAL SINGLE POINT ENERGY      -115.734194138978

DIPOLE MOMENT
-------------
                                X             Y             Z
Electronic contribution:      0.67634      -1.01850      -1.50489
Nuclear contribution   :     -0.35425       1.44473       1.98175
                        -----------------------------------------
Total Dipole Moment    :      0.32209       0.42624       0.47686
                        -----------------------------------------
Magnitude (a.u.)       :      0.71611
Magnitude (Debye)      :      1.82021

Rotational constants in cm-1:     4.457526     0.827555     0.794886
Rotational constants in MHz : 133633.273287 24809.480846 23830.082169

                             ****ORCA TERMINATED NORMALLY****
TOTAL RUN TIME: 0 days 0 hours 1 minutes 1 seconds 821 msec
