                         Program Version 4.1.2  - RELEASE  -
|  1> #Run DFT-D3 single point of the dimer
|  2> ! wB97X-D3 def2-TZVP TIGHTSCF CHELPG PMODEL PAL8
|  3>
|  4> %base "4-137_DFT_AB"
|  5>
|  6> %scf
|  7> MaxIter 1000
|  8> end
|  9>
| 10> * xyz 0 1
| 11>   C                      2.765020             -4.179074            5.805482
| 12>   O                      3.311683             -5.446056            6.177687
| 13>   H                      3.331339             -5.364676            7.148464
| 14>   H                      2.715584             -4.021929            4.701500
| 15>   H                      1.758848             -4.116859            6.285104
| 16>   H                      3.338024             -3.374553            6.326295
| 17>   C                      7.940522             -5.132775            7.224020
| 18>   O                      6.873024             -4.272816            6.968114
| 19>   H                      7.133448             -3.716899            6.257355
| 20>   H                      8.893694             -4.602173            7.225351
| 21>   H                      7.774406             -5.545440            8.190793
| 22>   H                      8.003783             -5.947100            6.575534
| 23> *
| 24>
| 25> #Run DFT-D3 single point of the molecule with dimer basis set
| 26> $new_job
| 27> %base "4-137_DFT_A"
| 28> ! wB97X-D3 def2-TZVP TIGHTSCF CHELPG PMODEL
| 29>
| 30> %scf
| 31> MaxIter 1000
| 32> end
| 33>
| 34> * xyz 0 1
| 35>   C                      2.765020             -4.179074            5.805482
| 36>   O                      3.311683             -5.446056            6.177687
| 37>   H                      3.331339             -5.364676            7.148464
| 38>   H                      2.715584             -4.021929            4.701500
| 39>   H                      1.758848             -4.116859            6.285104
| 40>   H                      3.338024             -3.374553            6.326295
| 41>   C                    : 7.940522             -5.132775            7.224020
| 42>   O                    : 6.873024             -4.272816            6.968114
| 43>   H                    : 7.133448             -3.716899            6.257355
| 44>   H                    : 8.893694             -4.602173            7.225351
| 45>   H                    : 7.774406             -5.545440            8.190793
| 46>   H                    : 8.003783             -5.947100            6.575534
| 47> *
| 48>
| 49> #Run DFT-D3 single point of the particle with dimer basis set
| 50> $new_job
| 51> %base "4-137_DFT_B"
| 52> ! wB97X-D3 def2-TZVP TIGHTSCF CHELPG PMODEL
| 53>
| 54> %scf
| 55> MaxIter 1000
| 56> end
| 57>
| 58> * xyz 0 1
| 59>   C                    : 2.765020             -4.179074            5.805482
| 60>   O                    : 3.311683             -5.446056            6.177687
| 61>   H                    : 3.331339             -5.364676            7.148464
| 62>   H                    : 2.715584             -4.021929            4.701500
| 63>   H                    : 1.758848             -4.116859            6.285104
| 64>   H                    : 3.338024             -3.374553            6.326295
| 65>   C                      7.940522             -5.132775            7.224020
| 66>   O                      6.873024             -4.272816            6.968114
| 67>   H                      7.133448             -3.716899            6.257355
| 68>   H                      8.893694             -4.602173            7.225351
| 69>   H                      7.774406             -5.545440            8.190793
| 70>   H                      8.003783             -5.947100            6.575534
| 71> *
| 72>
| 73>                          ****END OF INPUT****
 Total Charge           Charge          ....    0
 Multiplicity           Mult            ....    1
 Number of Electrons    NEL             ....   36
Dispersion correction           -0.000976855
FINAL SINGLE POINT ENERGY      -231.465595199036
Dispersion correction           -0.000218761
FINAL SINGLE POINT ENERGY      -115.731076163226

CARTESIAN COORDINATES (ANGSTROEM)
---------------------------------
  C      2.765020   -4.179074    5.805482
  O      3.311683   -5.446056    6.177687
  H      3.331339   -5.364676    7.148464
  H      2.715584   -4.021929    4.701500
  H      1.758848   -4.116859    6.285104
  H      3.338024   -3.374553    6.326295
  C      7.940522   -5.132775    7.224020
  O      6.873024   -4.272816    6.968114
  H      7.133448   -3.716899    6.257355
  H      8.893694   -4.602173    7.225351
  H      7.774406   -5.545440    8.190793
  H      8.003783   -5.947100    6.575534

 Multiplicity           Mult            ....    1
 Number of Electrons    NEL             ....   18
 Basis Dimension        Dim             ....  172

ORBITAL ENERGIES
----------------

  NO   OCC          E(Eh)            E(eV)
   0   2.0000     -19.227675      -523.2116
   1   2.0000     -10.301476      -280.3174
   2   2.0000      -1.146736       -31.2043
   3   2.0000      -0.803198       -21.8561
   4   2.0000      -0.618753       -16.8371
   5   2.0000      -0.549838       -14.9619
   6   2.0000      -0.530639       -14.4394
   7   2.0000      -0.436436       -11.8760
   8   2.0000      -0.375060       -10.2059
   9   0.0000       0.094546         2.5727
  10   0.0000       0.121689         3.3113
  11   0.0000       0.159552         4.3416
  12   0.0000       0.175674         4.7803
  13   0.0000       0.201492         5.4829

MULLIKEN ATOMIC CHARGES
-----------------------
   0 C :   -0.000369
   1 O :   -0.000365
   2 H :   -0.000680
   3 H :    0.000144
   4 H :   -0.000063
   5 H :   -0.001108
   6 C :   -0.149410
   7 O :   -0.467330
   8 H :    0.310420
   9 H :    0.096502
  10 H :    0.112814
  11 H :    0.099445
Sum of atomic charges:    0.0000000

LOEWDIN ATOMIC CHARGES
----------------------
   0 C :   -0.001069
   1 O :   -0.000647
   2 H :   -0.000723
   3 H :   -0.000006
   4 H :   -0.000016
   5 H :   -0.000587
   6 C :   -0.386994
   7 O :   -0.049694
   8 H :    0.156926
   9 H :    0.096071
  10 H :    0.104048
  11 H :    0.082691

  Mayer bond orders larger than 0.1
B(  6-C ,  7-O ) :   1.0022 B(  6-C ,  9-H ) :   0.9836 B(  6-C , 10-H ) :   0.9802
B(  6-C , 11-H ) :   0.9731 B(  7-O ,  8-H ) :   0.9053

Dispersion correction           -0.000218252
FINAL SINGLE POINT ENERGY      -115.734051320970

DIPOLE MOMENT
-------------
                                X             Y             Z
Electronic contribution:     -1.43574       1.02902      -0.29292
Nuclear contribution   :      2.02779      -1.01527      -0.05274
                        -----------------------------------------
Total Dipole Moment    :      0.59206       0.01375      -0.34566
                        -----------------------------------------
Magnitude (a.u.)       :      0.68571
Magnitude (Debye)      :      1.74294

Rotational constants in cm-1:     4.509874     0.860444     0.826673
Rotational constants in MHz : 135202.606660 25795.447726 24783.032323

                             ****ORCA TERMINATED NORMALLY****
TOTAL RUN TIME: 0 days 0 hours 1 minutes 29 seconds 312 msec
