                         Program Version 4.1.2  - RELEASE  -
|  1> #Run DFT-D3 single point of the dimer
|  2> ! wB97X-D3 def2-TZVP TIGHTSCF CHELPG PMODEL PAL8
|  3>
|  4> %base "4-59_DFT_AB"
|  5>
|  6> %scf
|  7> MaxIter 1000
|  8> end
|  9>
| 10> * xyz 0 1
| 11>   C                      -10.731025           2.823541             -1.194444
| 12>   O                      -10.503371           3.750135             -0.081358
| 13>   H                      -9.717192            3.611297             0.489731
| 14>   H                      -10.037854           3.038673             -2.059465
| 15>   H                      -10.587128           1.762189             -0.946121
| 16>   H                      -11.729911           2.863897             -1.670803
| 17>   C                      -5.431064            3.410645             -1.481040
| 18>   O                      -6.528782            2.810912             -0.803507
| 19>   H                      -6.199475            2.257877             -0.068820
| 20>   H                      -4.735965            3.634254             -0.724739
| 21>   H                      -4.972894            2.724629             -2.260108
| 22>   H                      -5.614087            4.338414             -1.991813
| 23> *
| 24>
| 25> #Run DFT-D3 single point of the molecule with dimer basis set
| 26> $new_job
| 27> %base "4-59_DFT_A"
| 28> ! wB97X-D3 def2-TZVP TIGHTSCF CHELPG PMODEL
| 29>
| 30> %scf
| 31> MaxIter 1000
| 32> end
| 33>
| 34> * xyz 0 1
| 35>   C                      -10.731025           2.823541             -1.194444
| 36>   O                      -10.503371           3.750135             -0.081358
| 37>   H                      -9.717192            3.611297             0.489731
| 38>   H                      -10.037854           3.038673             -2.059465
| 39>   H                      -10.587128           1.762189             -0.946121
| 40>   H                      -11.729911           2.863897             -1.670803
| 41>   C                    : -5.431064            3.410645             -1.481040
| 42>   O                    : -6.528782            2.810912             -0.803507
| 43>   H                    : -6.199475            2.257877             -0.068820
| 44>   H                    : -4.735965            3.634254             -0.724739
| 45>   H                    : -4.972894            2.724629             -2.260108
| 46>   H                    : -5.614087            4.338414             -1.991813
| 47> *
| 48>
| 49> #Run DFT-D3 single point of the particle with dimer basis set
| 50> $new_job
| 51> %base "4-59_DFT_B"
| 52> ! wB97X-D3 def2-TZVP TIGHTSCF CHELPG PMODEL
| 53>
| 54> %scf
| 55> MaxIter 1000
| 56> end
| 57>
| 58> * xyz 0 1
| 59>   C                    : -10.731025           2.823541             -1.194444
| 60>   O                    : -10.503371           3.750135             -0.081358
| 61>   H                    : -9.717192            3.611297             0.489731
| 62>   H                    : -10.037854           3.038673             -2.059465
| 63>   H                    : -10.587128           1.762189             -0.946121
| 64>   H                    : -11.729911           2.863897             -1.670803
| 65>   C                      -5.431064            3.410645             -1.481040
| 66>   O                      -6.528782            2.810912             -0.803507
| 67>   H                      -6.199475            2.257877             -0.068820
| 68>   H                      -4.735965            3.634254             -0.724739
| 69>   H                      -4.972894            2.724629             -2.260108
| 70>   H                      -5.614087            4.338414             -1.991813
| 71> *
| 72>
| 73>                          ****END OF INPUT****
 Total Charge           Charge          ....    0
 Multiplicity           Mult            ....    1
 Number of Electrons    NEL             ....   36
Dispersion correction           -0.001078051
FINAL SINGLE POINT ENERGY      -231.457459994586
Dispersion correction           -0.000319201
FINAL SINGLE POINT ENERGY      -115.726287729802

CARTESIAN COORDINATES (ANGSTROEM)
---------------------------------
  C    -10.731025    2.823541   -1.194444
  O    -10.503371    3.750135   -0.081358
  H     -9.717192    3.611297    0.489731
  H    -10.037854    3.038673   -2.059465
  H    -10.587128    1.762189   -0.946121
  H    -11.729911    2.863897   -1.670803
  C     -5.431064    3.410645   -1.481040
  O     -6.528782    2.810912   -0.803507
  H     -6.199475    2.257877   -0.068820
  H     -4.735965    3.634254   -0.724739
  H     -4.972894    2.724629   -2.260108
  H     -5.614087    4.338414   -1.991813

 Multiplicity           Mult            ....    1
 Number of Electrons    NEL             ....   18
 Basis Dimension        Dim             ....  172

ORBITAL ENERGIES
----------------

  NO   OCC          E(Eh)            E(eV)
   0   2.0000     -19.230366      -523.2849
   1   2.0000     -10.312059      -280.6054
   2   2.0000      -1.129701       -30.7407
   3   2.0000      -0.797605       -21.7039
   4   2.0000      -0.607344       -16.5267
   5   2.0000      -0.542618       -14.7654
   6   2.0000      -0.533785       -14.5250
   7   2.0000      -0.425989       -11.5918
   8   2.0000      -0.372823       -10.1450
   9   0.0000       0.095044         2.5863
  10   0.0000       0.117384         3.1942
  11   0.0000       0.150668         4.0999
  12   0.0000       0.175296         4.7700
  13   0.0000       0.200348         5.4518

MULLIKEN ATOMIC CHARGES
-----------------------
   0 C :   -0.000054
   1 O :    0.000275
   2 H :   -0.001829
   3 H :   -0.001329
   4 H :   -0.000146
   5 H :   -0.000123
   6 C :   -0.164293
   7 O :   -0.480657
   8 H :    0.319865
   9 H :    0.108417
  10 H :    0.097082
  11 H :    0.122791
Sum of atomic charges:   -0.0000000

LOEWDIN ATOMIC CHARGES
----------------------
   0 C :   -0.001264
   1 O :   -0.000098
   2 H :   -0.001467
   3 H :   -0.000615
   4 H :   -0.000102
   5 H :   -0.000022
   6 C :   -0.376995
   7 O :   -0.092695
   8 H :    0.179569
   9 H :    0.089241
  10 H :    0.102001
  11 H :    0.102446

  Mayer bond orders larger than 0.1
B(  6-C ,  7-O ) :   0.9963 B(  6-C ,  9-H ) :   0.9902 B(  6-C , 10-H ) :   0.9715
B(  6-C , 11-H ) :   0.9706 B(  7-O ,  8-H ) :   0.8934

Dispersion correction           -0.000246970
FINAL SINGLE POINT ENERGY      -115.729656587586

DIPOLE MOMENT
-------------
                                X             Y             Z
Electronic contribution:     -1.53959      -0.62625       0.76260
Nuclear contribution   :      2.21418       0.55589      -0.54431
                        -----------------------------------------
Total Dipole Moment    :      0.67460      -0.07036       0.21828
                        -----------------------------------------
Magnitude (a.u.)       :      0.71252
Magnitude (Debye)      :      1.81107

Rotational constants in cm-1:     4.411229     0.813400     0.793160
Rotational constants in MHz : 132245.320984 24385.120352 23778.327549

                             ****ORCA TERMINATED NORMALLY****
TOTAL RUN TIME: 0 days 0 hours 1 minutes 35 seconds 643 msec
