                         Program Version 4.1.2  - RELEASE  -
|  1> #Run DFT-D3 single point of the dimer
|  2> ! wB97X-D3 def2-TZVP TIGHTSCF CHELPG PMODEL PAL8
|  3>
|  4> %base "17-51_DFT_AB"
|  5>
|  6> %scf
|  7> MaxIter 1000
|  8> end
|  9>
| 10> * xyz 0 1
| 11>   C                      -8.719428            -0.806688            2.256153
| 12>   O                      -10.041191           -1.234781            2.494380
| 13>   H                      -10.144787           -1.521010            3.361301
| 14>   H                      -8.220031            -0.383521            3.209562
| 15>   H                      -8.128405            -1.587988            1.732554
| 16>   H                      -8.726105            0.059084             1.528395
| 17>   C                      -9.469355            -5.034915            5.023516
| 18>   O                      -9.137636            -6.276195            4.482305
| 19>   H                      -8.185798            -6.198072            4.385905
| 20>   H                      -10.343936           -5.070091            5.588574
| 21>   H                      -8.660249            -4.668172            5.713455
| 22>   H                      -9.621374            -4.272023            4.221521
| 23> *
| 24>
| 25> #Run DFT-D3 single point of the molecule with dimer basis set
| 26> $new_job
| 27> %base "17-51_DFT_A"
| 28> ! wB97X-D3 def2-TZVP TIGHTSCF CHELPG PMODEL
| 29>
| 30> %scf
| 31> MaxIter 1000
| 32> end
| 33>
| 34> * xyz 0 1
| 35>   C                      -8.719428            -0.806688            2.256153
| 36>   O                      -10.041191           -1.234781            2.494380
| 37>   H                      -10.144787           -1.521010            3.361301
| 38>   H                      -8.220031            -0.383521            3.209562
| 39>   H                      -8.128405            -1.587988            1.732554
| 40>   H                      -8.726105            0.059084             1.528395
| 41>   C                    : -9.469355            -5.034915            5.023516
| 42>   O                    : -9.137636            -6.276195            4.482305
| 43>   H                    : -8.185798            -6.198072            4.385905
| 44>   H                    : -10.343936           -5.070091            5.588574
| 45>   H                    : -8.660249            -4.668172            5.713455
| 46>   H                    : -9.621374            -4.272023            4.221521
| 47> *
| 48>
| 49> #Run DFT-D3 single point of the particle with dimer basis set
| 50> $new_job
| 51> %base "17-51_DFT_B"
| 52> ! wB97X-D3 def2-TZVP TIGHTSCF CHELPG PMODEL
| 53>
| 54> %scf
| 55> MaxIter 1000
| 56> end
| 57>
| 58> * xyz 0 1
| 59>   C                    : -8.719428            -0.806688            2.256153
| 60>   O                    : -10.041191           -1.234781            2.494380
| 61>   H                    : -10.144787           -1.521010            3.361301
| 62>   H                    : -8.220031            -0.383521            3.209562
| 63>   H                    : -8.128405            -1.587988            1.732554
| 64>   H                    : -8.726105            0.059084             1.528395
| 65>   C                      -9.469355            -5.034915            5.023516
| 66>   O                      -9.137636            -6.276195            4.482305
| 67>   H                      -8.185798            -6.198072            4.385905
| 68>   H                      -10.343936           -5.070091            5.588574
| 69>   H                      -8.660249            -4.668172            5.713455
| 70>   H                      -9.621374            -4.272023            4.221521
| 71> *
| 72>
| 73>                          ****END OF INPUT****
 Total Charge           Charge          ....    0
 Multiplicity           Mult            ....    1
 Number of Electrons    NEL             ....   36
Dispersion correction           -0.000981777
FINAL SINGLE POINT ENERGY      -231.463285744042
Dispersion correction           -0.000267392
FINAL SINGLE POINT ENERGY      -115.730813702707

CARTESIAN COORDINATES (ANGSTROEM)
---------------------------------
  C     -8.719428   -0.806688    2.256153
  O    -10.041191   -1.234781    2.494380
  H    -10.144787   -1.521010    3.361301
  H     -8.220031   -0.383521    3.209562
  H     -8.128405   -1.587988    1.732554
  H     -8.726105    0.059084    1.528395
  C     -9.469355   -5.034915    5.023516
  O     -9.137636   -6.276195    4.482305
  H     -8.185798   -6.198072    4.385905
  H    -10.343936   -5.070091    5.588574
  H     -8.660249   -4.668172    5.713455
  H     -9.621374   -4.272023    4.221521

 Multiplicity           Mult            ....    1
 Number of Electrons    NEL             ....   18
 Basis Dimension        Dim             ....  172

ORBITAL ENERGIES
----------------

  NO   OCC          E(Eh)            E(eV)
   0   2.0000     -19.232425      -523.3409
   1   2.0000     -10.311409      -280.5877
   2   2.0000      -1.147607       -31.2280
   3   2.0000      -0.793007       -21.5788
   4   2.0000      -0.612726       -16.6731
   5   2.0000      -0.543616       -14.7925
   6   2.0000      -0.534575       -14.5465
   7   2.0000      -0.438452       -11.9309
   8   2.0000      -0.372776       -10.1438
   9   0.0000       0.082315         2.2399
  10   0.0000       0.114156         3.1063
  11   0.0000       0.145473         3.9585
  12   0.0000       0.178382         4.8540
  13   0.0000       0.185651         5.0518

MULLIKEN ATOMIC CHARGES
-----------------------
   0 C :   -0.000004
   1 O :    0.000091
   2 H :   -0.000768
   3 H :   -0.000009
   4 H :   -0.000038
   5 H :   -0.000009
   6 C :   -0.177685
   7 O :   -0.455329
   8 H :    0.317105
   9 H :    0.121190
  10 H :    0.098214
  11 H :    0.097241
Sum of atomic charges:   -0.0000000

LOEWDIN ATOMIC CHARGES
----------------------
   0 C :   -0.000314
   1 O :   -0.000219
   2 H :   -0.001637
   3 H :   -0.000010
   4 H :   -0.000042
   5 H :   -0.000005
   6 C :   -0.404340
   7 O :   -0.060559
   8 H :    0.175393
   9 H :    0.092557
  10 H :    0.100863
  11 H :    0.098312

  Mayer bond orders larger than 0.1
B(  6-C ,  7-O ) :   1.0080 B(  6-C ,  9-H ) :   0.9730 B(  6-C , 10-H ) :   0.9858
B(  6-C , 11-H ) :   0.9741 B(  7-O ,  8-H ) :   0.9024

Dispersion correction           -0.000220572
FINAL SINGLE POINT ENERGY      -115.732322723241

DIPOLE MOMENT
-------------
                                X             Y             Z
Electronic contribution:      0.20087      -1.76784      -0.69356
Nuclear contribution   :      0.25469       2.26038       0.85878
                        -----------------------------------------
Total Dipole Moment    :      0.45557       0.49254       0.16523
                        -----------------------------------------
Magnitude (a.u.)       :      0.69097
Magnitude (Debye)      :      1.75630

Rotational constants in cm-1:     4.251864     0.855099     0.825308
Rotational constants in MHz : 127467.671471 25635.213258 24742.117887

                             ****ORCA TERMINATED NORMALLY****
TOTAL RUN TIME: 0 days 0 hours 1 minutes 11 seconds 156 msec
