                         Program Version 4.1.2  - RELEASE  -
|  1> #Run DFT-D3 single point of the dimer
|  2> ! wB97X-D3 def2-TZVP TIGHTSCF CHELPG PMODEL PAL8
|  3>
|  4> %base "4-53_DFT_AB"
|  5>
|  6> %scf
|  7> MaxIter 1000
|  8> end
|  9>
| 10> * xyz 0 1
| 11>   C                      4.599833             1.923888             6.602593
| 12>   O                      3.786116             2.729609             7.484004
| 13>   H                      3.607876             3.440949             6.897519
| 14>   H                      5.455821             2.534420             6.223668
| 15>   H                      5.103900             1.124986             7.097621
| 16>   H                      4.070648             1.512387             5.743250
| 17>   C                      3.392182             5.576519             4.825314
| 18>   O                      2.608219             4.363636             4.664334
| 19>   H                      1.747637             4.629435             4.498987
| 20>   H                      2.958514             6.166553             5.574464
| 21>   H                      4.409172             5.301786             5.042444
| 22>   H                      3.292451             6.047728             3.864097
| 23> *
| 24>
| 25> #Run DFT-D3 single point of the molecule with dimer basis set
| 26> $new_job
| 27> %base "4-53_DFT_A"
| 28> ! wB97X-D3 def2-TZVP TIGHTSCF CHELPG PMODEL
| 29>
| 30> %scf
| 31> MaxIter 1000
| 32> end
| 33>
| 34> * xyz 0 1
| 35>   C                      4.599833             1.923888             6.602593
| 36>   O                      3.786116             2.729609             7.484004
| 37>   H                      3.607876             3.440949             6.897519
| 38>   H                      5.455821             2.534420             6.223668
| 39>   H                      5.103900             1.124986             7.097621
| 40>   H                      4.070648             1.512387             5.743250
| 41>   C                    : 3.392182             5.576519             4.825314
| 42>   O                    : 2.608219             4.363636             4.664334
| 43>   H                    : 1.747637             4.629435             4.498987
| 44>   H                    : 2.958514             6.166553             5.574464
| 45>   H                    : 4.409172             5.301786             5.042444
| 46>   H                    : 3.292451             6.047728             3.864097
| 47> *
| 48>
| 49> #Run DFT-D3 single point of the particle with dimer basis set
| 50> $new_job
| 51> %base "4-53_DFT_B"
| 52> ! wB97X-D3 def2-TZVP TIGHTSCF CHELPG PMODEL
| 53>
| 54> %scf
| 55> MaxIter 1000
| 56> end
| 57>
| 58> * xyz 0 1
| 59>   C                    : 4.599833             1.923888             6.602593
| 60>   O                    : 3.786116             2.729609             7.484004
| 61>   H                    : 3.607876             3.440949             6.897519
| 62>   H                    : 5.455821             2.534420             6.223668
| 63>   H                    : 5.103900             1.124986             7.097621
| 64>   H                    : 4.070648             1.512387             5.743250
| 65>   C                      3.392182             5.576519             4.825314
| 66>   O                      2.608219             4.363636             4.664334
| 67>   H                      1.747637             4.629435             4.498987
| 68>   H                      2.958514             6.166553             5.574464
| 69>   H                      4.409172             5.301786             5.042444
| 70>   H                      3.292451             6.047728             3.864097
| 71> *
| 72>
| 73>                          ****END OF INPUT****
 Total Charge           Charge          ....    0
 Multiplicity           Mult            ....    1
 Number of Electrons    NEL             ....   36
Dispersion correction           -0.001852085
FINAL SINGLE POINT ENERGY      -231.466344889237
Dispersion correction           -0.000234917
FINAL SINGLE POINT ENERGY      -115.731464275088

CARTESIAN COORDINATES (ANGSTROEM)
---------------------------------
  C      4.599833    1.923888    6.602593
  O      3.786116    2.729609    7.484004
  H      3.607876    3.440949    6.897519
  H      5.455821    2.534420    6.223668
  H      5.103900    1.124986    7.097621
  H      4.070648    1.512387    5.743250
  C      3.392182    5.576519    4.825314
  O      2.608219    4.363636    4.664334
  H      1.747637    4.629435    4.498987
  H      2.958514    6.166553    5.574464
  H      4.409172    5.301786    5.042444
  H      3.292451    6.047728    3.864097

 Multiplicity           Mult            ....    1
 Number of Electrons    NEL             ....   18
 Basis Dimension        Dim             ....  172

ORBITAL ENERGIES
----------------

  NO   OCC          E(Eh)            E(eV)
   0   2.0000     -19.219065      -522.9773
   1   2.0000     -10.308016      -280.4954
   2   2.0000      -1.132579       -30.8190
   3   2.0000      -0.804056       -21.8795
   4   2.0000      -0.606553       -16.5052
   5   2.0000      -0.549532       -14.9535
   6   2.0000      -0.529298       -14.4029
   7   2.0000      -0.438443       -11.9306
   8   2.0000      -0.372045       -10.1238
   9   0.0000       0.096548         2.6272
  10   0.0000       0.126729         3.4485
  11   0.0000       0.158200         4.3049
  12   0.0000       0.185413         5.0453
  13   0.0000       0.191161         5.2018

MULLIKEN ATOMIC CHARGES
-----------------------
   0 C :    0.002454
   1 O :   -0.000627
   2 H :   -0.002514
   3 H :   -0.000696
   4 H :   -0.000124
   5 H :   -0.002719
   6 C :   -0.172744
   7 O :   -0.479044
   8 H :    0.298379
   9 H :    0.115000
  10 H :    0.125451
  11 H :    0.117184
Sum of atomic charges:    0.0000000

LOEWDIN ATOMIC CHARGES
----------------------
   0 C :   -0.002735
   1 O :   -0.000921
   2 H :   -0.008573
   3 H :   -0.000244
   4 H :   -0.000025
   5 H :   -0.001248
   6 C :   -0.332751
   7 O :   -0.080087
   8 H :    0.132526
   9 H :    0.087936
  10 H :    0.107419
  11 H :    0.098704

  Mayer bond orders larger than 0.1
B(  6-C ,  7-O ) :   0.9643 B(  6-C ,  9-H ) :   0.9785 B(  6-C , 10-H ) :   0.9746
B(  6-C , 11-H ) :   0.9833 B(  7-O ,  8-H ) :   0.9149

Dispersion correction           -0.000204623
FINAL SINGLE POINT ENERGY      -115.730275327973

DIPOLE MOMENT
-------------
                                X             Y             Z
Electronic contribution:     -0.72970      -1.42517      -0.08042
Nuclear contribution   :      0.51158       2.13207       0.03712
                        -----------------------------------------
Total Dipole Moment    :     -0.21811       0.70691      -0.04330
                        -----------------------------------------
Magnitude (a.u.)       :      0.74106
Magnitude (Debye)      :      1.88362

Rotational constants in cm-1:     4.377330     0.819791     0.789824
Rotational constants in MHz : 131229.059747 24576.722707 23678.338871

                             ****ORCA TERMINATED NORMALLY****
TOTAL RUN TIME: 0 days 0 hours 1 minutes 27 seconds 351 msec
