                         Program Version 4.1.2  - RELEASE  -
|  1> #Run DFT-D3 single point of the dimer
|  2> ! wB97X-D3 def2-TZVP TIGHTSCF CHELPG PMODEL PAL8
|  3>
|  4> %base "5-120_DFT_AB"
|  5>
|  6> %scf
|  7> MaxIter 1000
|  8> end
|  9>
| 10> * xyz 0 1
| 11>   C                      -9.545944            -1.925808            -2.997380
| 12>   O                      -9.264013            -3.170088            -3.475293
| 13>   H                      -8.769437            -3.667740            -2.835042
| 14>   H                      -8.792932            -1.236500            -3.249073
| 15>   H                      -10.372462           -1.460632            -3.328128
| 16>   H                      -9.761016            -1.989993            -1.908970
| 17>   C                      -3.808574            -2.865597            -3.912877
| 18>   O                      -5.088948            -2.779502            -3.379765
| 19>   H                      -5.243762            -3.512747            -2.820870
| 20>   H                      -3.708712            -2.261601            -4.794589
| 21>   H                      -2.979680            -2.555492            -3.204969
| 22>   H                      -3.569196            -3.920728            -4.166138
| 23> *
| 24>
| 25> #Run DFT-D3 single point of the molecule with dimer basis set
| 26> $new_job
| 27> %base "5-120_DFT_A"
| 28> ! wB97X-D3 def2-TZVP TIGHTSCF CHELPG PMODEL
| 29>
| 30> %scf
| 31> MaxIter 1000
| 32> end
| 33>
| 34> * xyz 0 1
| 35>   C                      -9.545944            -1.925808            -2.997380
| 36>   O                      -9.264013            -3.170088            -3.475293
| 37>   H                      -8.769437            -3.667740            -2.835042
| 38>   H                      -8.792932            -1.236500            -3.249073
| 39>   H                      -10.372462           -1.460632            -3.328128
| 40>   H                      -9.761016            -1.989993            -1.908970
| 41>   C                    : -3.808574            -2.865597            -3.912877
| 42>   O                    : -5.088948            -2.779502            -3.379765
| 43>   H                    : -5.243762            -3.512747            -2.820870
| 44>   H                    : -3.708712            -2.261601            -4.794589
| 45>   H                    : -2.979680            -2.555492            -3.204969
| 46>   H                    : -3.569196            -3.920728            -4.166138
| 47> *
| 48>
| 49> #Run DFT-D3 single point of the particle with dimer basis set
| 50> $new_job
| 51> %base "5-120_DFT_B"
| 52> ! wB97X-D3 def2-TZVP TIGHTSCF CHELPG PMODEL
| 53>
| 54> %scf
| 55> MaxIter 1000
| 56> end
| 57>
| 58> * xyz 0 1
| 59>   C                    : -9.545944            -1.925808            -2.997380
| 60>   O                    : -9.264013            -3.170088            -3.475293
| 61>   H                    : -8.769437            -3.667740            -2.835042
| 62>   H                    : -8.792932            -1.236500            -3.249073
| 63>   H                    : -10.372462           -1.460632            -3.328128
| 64>   H                    : -9.761016            -1.989993            -1.908970
| 65>   C                      -3.808574            -2.865597            -3.912877
| 66>   O                      -5.088948            -2.779502            -3.379765
| 67>   H                      -5.243762            -3.512747            -2.820870
| 68>   H                      -3.708712            -2.261601            -4.794589
| 69>   H                      -2.979680            -2.555492            -3.204969
| 70>   H                      -3.569196            -3.920728            -4.166138
| 71> *
| 72>
| 73>                          ****END OF INPUT****
 Total Charge           Charge          ....    0
 Multiplicity           Mult            ....    1
 Number of Electrons    NEL             ....   36
Dispersion correction           -0.000845796
FINAL SINGLE POINT ENERGY      -231.456530271068
Dispersion correction           -0.000216202
FINAL SINGLE POINT ENERGY      -115.722267746847

CARTESIAN COORDINATES (ANGSTROEM)
---------------------------------
  C     -9.545944   -1.925808   -2.997380
  O     -9.264013   -3.170088   -3.475293
  H     -8.769437   -3.667740   -2.835042
  H     -8.792932   -1.236500   -3.249073
  H    -10.372462   -1.460632   -3.328128
  H     -9.761016   -1.989993   -1.908970
  C     -3.808574   -2.865597   -3.912877
  O     -5.088948   -2.779502   -3.379765
  H     -5.243762   -3.512747   -2.820870
  H     -3.708712   -2.261601   -4.794589
  H     -2.979680   -2.555492   -3.204969
  H     -3.569196   -3.920728   -4.166138

 Multiplicity           Mult            ....    1
 Number of Electrons    NEL             ....   18
 Basis Dimension        Dim             ....  172

ORBITAL ENERGIES
----------------

  NO   OCC          E(Eh)            E(eV)
   0   2.0000     -19.229571      -523.2632
   1   2.0000     -10.315716      -280.7049
   2   2.0000      -1.149417       -31.2772
   3   2.0000      -0.796384       -21.6707
   4   2.0000      -0.620445       -16.8832
   5   2.0000      -0.538073       -14.6417
   6   2.0000      -0.534688       -14.5496
   7   2.0000      -0.434026       -11.8105
   8   2.0000      -0.371399       -10.1063
   9   0.0000       0.091291         2.4841
  10   0.0000       0.119213         3.2440
  11   0.0000       0.151469         4.1217
  12   0.0000       0.178475         4.8565
  13   0.0000       0.199205         5.4206

MULLIKEN ATOMIC CHARGES
-----------------------
   0 C :    0.000284
   1 O :   -0.000085
   2 H :   -0.000439
   3 H :   -0.000998
   4 H :   -0.000051
   5 H :    0.000015
   6 C :   -0.155122
   7 O :   -0.464627
   8 H :    0.314820
   9 H :    0.120840
  10 H :    0.090960
  11 H :    0.094403
Sum of atomic charges:   -0.0000000

LOEWDIN ATOMIC CHARGES
----------------------
   0 C :   -0.000363
   1 O :   -0.000112
   2 H :   -0.000349
   3 H :   -0.000341
   4 H :   -0.000007
   5 H :   -0.000001
   6 C :   -0.404555
   7 O :   -0.045808
   8 H :    0.155547
   9 H :    0.102251
  10 H :    0.097579
  11 H :    0.096159

  Mayer bond orders larger than 0.1
B(  6-C ,  7-O ) :   1.0060 B(  6-C ,  9-H ) :   0.9740 B(  6-C , 10-H ) :   0.9684
B(  6-C , 11-H ) :   0.9848 B(  7-O ,  8-H ) :   0.9014

Dispersion correction           -0.000241802
FINAL SINGLE POINT ENERGY      -115.734564570787

DIPOLE MOMENT
-------------
                                X             Y             Z
Electronic contribution:     -1.79172       0.28871       0.58693
Nuclear contribution   :      2.17076      -0.80672      -0.44996
                        -----------------------------------------
Total Dipole Moment    :      0.37904      -0.51801       0.13696
                        -----------------------------------------
Magnitude (a.u.)       :      0.65632
Magnitude (Debye)      :      1.66824

Rotational constants in cm-1:     4.337574     0.847706     0.817209
Rotational constants in MHz : 130037.193936 25413.583883 24499.306466

                             ****ORCA TERMINATED NORMALLY****
TOTAL RUN TIME: 0 days 0 hours 1 minutes 2 seconds 423 msec
