                         Program Version 4.1.2  - RELEASE  -
|  1> #Run DFT-D3 single point of the dimer
|  2> ! wB97X-D3 def2-TZVP TIGHTSCF CHELPG PMODEL PAL8
|  3>
|  4> %base "6-73_DFT_AB"
|  5>
|  6> %scf
|  7> MaxIter 1000
|  8> end
|  9>
| 10> * xyz 0 1
| 11>   C                      -3.007502            9.442801             -7.537317
| 12>   O                      -3.771246            10.636848            -7.389227
| 13>   H                      -4.466168            10.347383            -6.812460
| 14>   H                      -3.662800            8.684267             -8.136335
| 15>   H                      -2.027431            9.581203             -7.950742
| 16>   H                      -2.782450            9.003005             -6.589918
| 17>   C                      -3.753317            8.453076             -3.675091
| 18>   O                      -4.805118            8.529794             -2.662201
| 19>   H                      -4.625615            9.320170             -2.143489
| 20>   H                      -4.141180            7.732325             -4.512452
| 21>   H                      -3.737738            9.356105             -4.145281
| 22>   H                      -2.769466            8.227338             -3.221110
| 23> *
| 24>
| 25> #Run DFT-D3 single point of the molecule with dimer basis set
| 26> $new_job
| 27> %base "6-73_DFT_A"
| 28> ! wB97X-D3 def2-TZVP TIGHTSCF CHELPG PMODEL
| 29>
| 30> %scf
| 31> MaxIter 1000
| 32> end
| 33>
| 34> * xyz 0 1
| 35>   C                      -3.007502            9.442801             -7.537317
| 36>   O                      -3.771246            10.636848            -7.389227
| 37>   H                      -4.466168            10.347383            -6.812460
| 38>   H                      -3.662800            8.684267             -8.136335
| 39>   H                      -2.027431            9.581203             -7.950742
| 40>   H                      -2.782450            9.003005             -6.589918
| 41>   C                    : -3.753317            8.453076             -3.675091
| 42>   O                    : -4.805118            8.529794             -2.662201
| 43>   H                    : -4.625615            9.320170             -2.143489
| 44>   H                    : -4.141180            7.732325             -4.512452
| 45>   H                    : -3.737738            9.356105             -4.145281
| 46>   H                    : -2.769466            8.227338             -3.221110
| 47> *
| 48>
| 49> #Run DFT-D3 single point of the particle with dimer basis set
| 50> $new_job
| 51> %base "6-73_DFT_B"
| 52> ! wB97X-D3 def2-TZVP TIGHTSCF CHELPG PMODEL
| 53>
| 54> %scf
| 55> MaxIter 1000
| 56> end
| 57>
| 58> * xyz 0 1
| 59>   C                    : -3.007502            9.442801             -7.537317
| 60>   O                    : -3.771246            10.636848            -7.389227
| 61>   H                    : -4.466168            10.347383            -6.812460
| 62>   H                    : -3.662800            8.684267             -8.136335
| 63>   H                    : -2.027431            9.581203             -7.950742
| 64>   H                    : -2.782450            9.003005             -6.589918
| 65>   C                      -3.753317            8.453076             -3.675091
| 66>   O                      -4.805118            8.529794             -2.662201
| 67>   H                      -4.625615            9.320170             -2.143489
| 68>   H                      -4.141180            7.732325             -4.512452
| 69>   H                      -3.737738            9.356105             -4.145281
| 70>   H                      -2.769466            8.227338             -3.221110
| 71> *
| 72>
| 73>                          ****END OF INPUT****
 Total Charge           Charge          ....    0
 Multiplicity           Mult            ....    1
 Number of Electrons    NEL             ....   36
Dispersion correction           -0.001523028
FINAL SINGLE POINT ENERGY      -231.455425413950
Dispersion correction           -0.000226279
FINAL SINGLE POINT ENERGY      -115.729262104678

CARTESIAN COORDINATES (ANGSTROEM)
---------------------------------
  C     -3.007502    9.442801   -7.537317
  O     -3.771246   10.636848   -7.389227
  H     -4.466168   10.347383   -6.812460
  H     -3.662800    8.684267   -8.136335
  H     -2.027431    9.581203   -7.950742
  H     -2.782450    9.003005   -6.589918
  C     -3.753317    8.453076   -3.675091
  O     -4.805118    8.529794   -2.662201
  H     -4.625615    9.320170   -2.143489
  H     -4.141180    7.732325   -4.512452
  H     -3.737738    9.356105   -4.145281
  H     -2.769466    8.227338   -3.221110

 Multiplicity           Mult            ....    1
 Number of Electrons    NEL             ....   18
 Basis Dimension        Dim             ....  172

ORBITAL ENERGIES
----------------

  NO   OCC          E(Eh)            E(eV)
   0   2.0000     -19.227078      -523.1954
   1   2.0000     -10.317634      -280.7571
   2   2.0000      -1.121337       -30.5131
   3   2.0000      -0.795437       -21.6449
   4   2.0000      -0.601265       -16.3612
   5   2.0000      -0.549066       -14.9409
   6   2.0000      -0.509122       -13.8539
   7   2.0000      -0.433280       -11.7901
   8   2.0000      -0.375675       -10.2226
   9   0.0000       0.083235         2.2649
  10   0.0000       0.115712         3.1487
  11   0.0000       0.154334         4.1996
  12   0.0000       0.162235         4.4146
  13   0.0000       0.176702         4.8083

MULLIKEN ATOMIC CHARGES
-----------------------
   0 C :   -0.001295
   1 O :    0.000163
   2 H :    0.000282
   3 H :    0.000137
   4 H :   -0.000092
   5 H :    0.000155
   6 C :   -0.179787
   7 O :   -0.481660
   8 H :    0.309576
   9 H :    0.121021
  10 H :    0.121591
  11 H :    0.109909
Sum of atomic charges:    0.0000000

LOEWDIN ATOMIC CHARGES
----------------------
   0 C :   -0.001918
   1 O :   -0.000111
   2 H :   -0.000731
   3 H :   -0.000042
   4 H :   -0.000009
   5 H :   -0.002690
   6 C :   -0.349584
   7 O :   -0.115307
   8 H :    0.163743
   9 H :    0.127829
  10 H :    0.078628
  11 H :    0.100191

  Mayer bond orders larger than 0.1
B(  6-C ,  7-O ) :   0.9898 B(  6-C ,  9-H ) :   0.9714 B(  6-C , 10-H ) :   0.9803
B(  6-C , 11-H ) :   0.9660 B(  7-O ,  8-H ) :   0.9032

Dispersion correction           -0.000242918
FINAL SINGLE POINT ENERGY      -115.725273637967

DIPOLE MOMENT
-------------
                                X             Y             Z
Electronic contribution:     -1.20542      -0.01629       1.21279
Nuclear contribution   :      1.74934       0.53191      -1.33468
                        -----------------------------------------
Total Dipole Moment    :      0.54392       0.51562      -0.12188
                        -----------------------------------------
Magnitude (a.u.)       :      0.75932
Magnitude (Debye)      :      1.93005

Rotational constants in cm-1:     4.140968     0.798725     0.764782
Rotational constants in MHz : 124143.088718 23945.187304 22927.580686

                             ****ORCA TERMINATED NORMALLY****
TOTAL RUN TIME: 0 days 0 hours 1 minutes 4 seconds 989 msec
