                         Program Version 4.1.2  - RELEASE  -
|  1> #Run DFT-D3 single point of the dimer
|  2> ! wB97X-D3 def2-TZVP TIGHTSCF CHELPG PMODEL PAL8
|  3>
|  4> %base "10-25_DFT_AB"
|  5>
|  6> %scf
|  7> MaxIter 1000
|  8> end
|  9>
| 10> * xyz 0 1
| 11>   C                      -0.107336            -6.761295            -6.715591
| 12>   O                      -0.840736            -7.925506            -6.762882
| 13>   H                      -0.625648            -8.537022            -6.098598
| 14>   H                      0.918834             -6.900276            -6.443235
| 15>   H                      -0.136207            -6.196261            -7.628469
| 16>   H                      -0.460480            -6.062073            -5.931819
| 17>   C                      2.311494             -9.830904            -8.216563
| 18>   O                      3.558891             -10.484770           -8.480704
| 19>   H                      3.941405             -10.762820           -7.664795
| 20>   H                      2.383091             -9.009173            -7.449427
| 21>   H                      1.831679             -9.423599            -9.122781
| 22>   H                      1.578314             -10.570983           -7.892508
| 23> *
| 24>
| 25> #Run DFT-D3 single point of the molecule with dimer basis set
| 26> $new_job
| 27> %base "10-25_DFT_A"
| 28> ! wB97X-D3 def2-TZVP TIGHTSCF CHELPG PMODEL
| 29>
| 30> %scf
| 31> MaxIter 1000
| 32> end
| 33>
| 34> * xyz 0 1
| 35>   C                      -0.107336            -6.761295            -6.715591
| 36>   O                      -0.840736            -7.925506            -6.762882
| 37>   H                      -0.625648            -8.537022            -6.098598
| 38>   H                      0.918834             -6.900276            -6.443235
| 39>   H                      -0.136207            -6.196261            -7.628469
| 40>   H                      -0.460480            -6.062073            -5.931819
| 41>   C                    : 2.311494             -9.830904            -8.216563
| 42>   O                    : 3.558891             -10.484770           -8.480704
| 43>   H                    : 3.941405             -10.762820           -7.664795
| 44>   H                    : 2.383091             -9.009173            -7.449427
| 45>   H                    : 1.831679             -9.423599            -9.122781
| 46>   H                    : 1.578314             -10.570983           -7.892508
| 47> *
| 48>
| 49> #Run DFT-D3 single point of the particle with dimer basis set
| 50> $new_job
| 51> %base "10-25_DFT_B"
| 52> ! wB97X-D3 def2-TZVP TIGHTSCF CHELPG PMODEL
| 53>
| 54> %scf
| 55> MaxIter 1000
| 56> end
| 57>
| 58> * xyz 0 1
| 59>   C                    : -0.107336            -6.761295            -6.715591
| 60>   O                    : -0.840736            -7.925506            -6.762882
| 61>   H                    : -0.625648            -8.537022            -6.098598
| 62>   H                    : 0.918834             -6.900276            -6.443235
| 63>   H                    : -0.136207            -6.196261            -7.628469
| 64>   H                    : -0.460480            -6.062073            -5.931819
| 65>   C                      2.311494             -9.830904            -8.216563
| 66>   O                      3.558891             -10.484770           -8.480704
| 67>   H                      3.941405             -10.762820           -7.664795
| 68>   H                      2.383091             -9.009173            -7.449427
| 69>   H                      1.831679             -9.423599            -9.122781
| 70>   H                      1.578314             -10.570983           -7.892508
| 71> *
| 72>
| 73>                          ****END OF INPUT****
 Total Charge           Charge          ....    0
 Multiplicity           Mult            ....    1
 Number of Electrons    NEL             ....   36
Dispersion correction           -0.001485609
FINAL SINGLE POINT ENERGY      -231.467731341190
Dispersion correction           -0.000241885
FINAL SINGLE POINT ENERGY      -115.732869046456

CARTESIAN COORDINATES (ANGSTROEM)
---------------------------------
  C     -0.107336   -6.761295   -6.715591
  O     -0.840736   -7.925506   -6.762882
  H     -0.625648   -8.537022   -6.098598
  H      0.918834   -6.900276   -6.443235
  H     -0.136207   -6.196261   -7.628469
  H     -0.460480   -6.062073   -5.931819
  C      2.311494   -9.830904   -8.216563
  O      3.558891  -10.484770   -8.480704
  H      3.941405  -10.762820   -7.664795
  H      2.383091   -9.009173   -7.449427
  H      1.831679   -9.423599   -9.122781
  H      1.578314  -10.570983   -7.892508

 Multiplicity           Mult            ....    1
 Number of Electrons    NEL             ....   18
 Basis Dimension        Dim             ....  172

ORBITAL ENERGIES
----------------

  NO   OCC          E(Eh)            E(eV)
   0   2.0000     -19.229547      -523.2626
   1   2.0000     -10.319714      -280.8137
   2   2.0000      -1.133626       -30.8475
   3   2.0000      -0.796656       -21.6781
   4   2.0000      -0.607790       -16.5388
   5   2.0000      -0.539303       -14.6752
   6   2.0000      -0.526273       -14.3206
   7   2.0000      -0.431548       -11.7430
   8   2.0000      -0.374886       -10.2012
   9   0.0000       0.079946         2.1754
  10   0.0000       0.119062         3.2398
  11   0.0000       0.147889         4.0243
  12   0.0000       0.164774         4.4837
  13   0.0000       0.180195         4.9034

MULLIKEN ATOMIC CHARGES
-----------------------
   0 C :    0.000030
   1 O :    0.000097
   2 H :   -0.000385
   3 H :   -0.001069
   4 H :    0.000002
   5 H :   -0.000085
   6 C :   -0.169735
   7 O :   -0.477872
   8 H :    0.314652
   9 H :    0.104257
  10 H :    0.121709
  11 H :    0.108400
Sum of atomic charges:    0.0000000

LOEWDIN ATOMIC CHARGES
----------------------
   0 C :   -0.001908
   1 O :   -0.000150
   2 H :   -0.000384
   3 H :   -0.001894
   4 H :   -0.000048
   5 H :   -0.000015
   6 C :   -0.377835
   7 O :   -0.082363
   8 H :    0.156557
   9 H :    0.101811
  10 H :    0.111095
  11 H :    0.095134

  Mayer bond orders larger than 0.1
B(  6-C ,  7-O ) :   0.9944 B(  6-C ,  9-H ) :   0.9745 B(  6-C , 10-H ) :   0.9705
B(  6-C , 11-H ) :   0.9768 B(  7-O ,  8-H ) :   0.9005

Dispersion correction           -0.000260748
FINAL SINGLE POINT ENERGY      -115.733855511653

DIPOLE MOMENT
-------------
                                X             Y             Z
Electronic contribution:      1.65067      -0.78065      -0.47985
Nuclear contribution   :     -1.92769       0.85728       1.09686
                        -----------------------------------------
Total Dipole Moment    :     -0.27702       0.07663       0.61701
                        -----------------------------------------
Magnitude (a.u.)       :      0.68067
Magnitude (Debye)      :      1.73012

Rotational constants in cm-1:     4.326155     0.803683     0.777714
Rotational constants in MHz : 129694.871480 24093.823302 23315.290865

                             ****ORCA TERMINATED NORMALLY****
TOTAL RUN TIME: 0 days 0 hours 1 minutes 4 seconds 954 msec
