                         Program Version 4.1.2  - RELEASE  -
|  1> #Run DFT-D3 single point of the dimer
|  2> ! wB97X-D3 def2-TZVP TIGHTSCF CHELPG PMODEL PAL8
|  3>
|  4> %base "21-91_DFT_AB"
|  5>
|  6> %scf
|  7> MaxIter 1000
|  8> end
|  9>
| 10> * xyz 0 1
| 11>   C                      -0.279772            8.880130             -5.984317
| 12>   O                      0.783245             8.630714             -6.886738
| 13>   H                      0.274807             8.473379             -7.649880
| 14>   H                      -0.903684            9.718744             -6.263217
| 15>   H                      -0.970593            8.024726             -5.917269
| 16>   H                      0.085905             9.093486             -4.943612
| 17>   C                      3.238427             6.178181             -9.426286
| 18>   O                      4.048945             5.033788             -9.056436
| 19>   H                      4.846479             5.325362             -8.628553
| 20>   H                      2.895541             6.731841             -8.572065
| 21>   H                      3.792113             6.883283             -9.977120
| 22>   H                      2.425263             5.892164             -10.025981
| 23> *
| 24>
| 25> #Run DFT-D3 single point of the molecule with dimer basis set
| 26> $new_job
| 27> %base "21-91_DFT_A"
| 28> ! wB97X-D3 def2-TZVP TIGHTSCF CHELPG PMODEL
| 29>
| 30> %scf
| 31> MaxIter 1000
| 32> end
| 33>
| 34> * xyz 0 1
| 35>   C                      -0.279772            8.880130             -5.984317
| 36>   O                      0.783245             8.630714             -6.886738
| 37>   H                      0.274807             8.473379             -7.649880
| 38>   H                      -0.903684            9.718744             -6.263217
| 39>   H                      -0.970593            8.024726             -5.917269
| 40>   H                      0.085905             9.093486             -4.943612
| 41>   C                    : 3.238427             6.178181             -9.426286
| 42>   O                    : 4.048945             5.033788             -9.056436
| 43>   H                    : 4.846479             5.325362             -8.628553
| 44>   H                    : 2.895541             6.731841             -8.572065
| 45>   H                    : 3.792113             6.883283             -9.977120
| 46>   H                    : 2.425263             5.892164             -10.025981
| 47> *
| 48>
| 49> #Run DFT-D3 single point of the particle with dimer basis set
| 50> $new_job
| 51> %base "21-91_DFT_B"
| 52> ! wB97X-D3 def2-TZVP TIGHTSCF CHELPG PMODEL
| 53>
| 54> %scf
| 55> MaxIter 1000
| 56> end
| 57>
| 58> * xyz 0 1
| 59>   C                    : -0.279772            8.880130             -5.984317
| 60>   O                    : 0.783245             8.630714             -6.886738
| 61>   H                    : 0.274807             8.473379             -7.649880
| 62>   H                    : -0.903684            9.718744             -6.263217
| 63>   H                    : -0.970593            8.024726             -5.917269
| 64>   H                    : 0.085905             9.093486             -4.943612
| 65>   C                      3.238427             6.178181             -9.426286
| 66>   O                      4.048945             5.033788             -9.056436
| 67>   H                      4.846479             5.325362             -8.628553
| 68>   H                      2.895541             6.731841             -8.572065
| 69>   H                      3.792113             6.883283             -9.977120
| 70>   H                      2.425263             5.892164             -10.025981
| 71> *
| 72>
| 73>                          ****END OF INPUT****
 Total Charge           Charge          ....    0
 Multiplicity           Mult            ....    1
 Number of Electrons    NEL             ....   36
Dispersion correction           -0.000882556
FINAL SINGLE POINT ENERGY      -231.465498551547
Dispersion correction           -0.000223180
FINAL SINGLE POINT ENERGY      -115.731995092640

CARTESIAN COORDINATES (ANGSTROEM)
---------------------------------
  C     -0.279772    8.880130   -5.984317
  O      0.783245    8.630714   -6.886738
  H      0.274807    8.473379   -7.649880
  H     -0.903684    9.718744   -6.263217
  H     -0.970593    8.024726   -5.917269
  H      0.085905    9.093486   -4.943612
  C      3.238427    6.178181   -9.426286
  O      4.048945    5.033788   -9.056436
  H      4.846479    5.325362   -8.628553
  H      2.895541    6.731841   -8.572065
  H      3.792113    6.883283   -9.977120
  H      2.425263    5.892164  -10.025981

 Multiplicity           Mult            ....    1
 Number of Electrons    NEL             ....   18
 Basis Dimension        Dim             ....  172

ORBITAL ENERGIES
----------------

  NO   OCC          E(Eh)            E(eV)
   0   2.0000     -19.227174      -523.1980
   1   2.0000     -10.305166      -280.4178
   2   2.0000      -1.124653       -30.6034
   3   2.0000      -0.808117       -21.9900
   4   2.0000      -0.609371       -16.5818
   5   2.0000      -0.537880       -14.6365
   6   2.0000      -0.530257       -14.4290
   7   2.0000      -0.438200       -11.9240
   8   2.0000      -0.374129       -10.1806
   9   0.0000       0.083494         2.2720
  10   0.0000       0.118086         3.2133
  11   0.0000       0.139736         3.8024
  12   0.0000       0.180509         4.9119
  13   0.0000       0.188473         5.1286

MULLIKEN ATOMIC CHARGES
-----------------------
   0 C :   -0.000010
   1 O :   -0.000022
   2 H :   -0.000311
   3 H :   -0.000003
   4 H :   -0.000007
   5 H :    0.000006
   6 C :   -0.161606
   7 O :   -0.489603
   8 H :    0.312673
   9 H :    0.104276
  10 H :    0.107620
  11 H :    0.126988
Sum of atomic charges:   -0.0000000

LOEWDIN ATOMIC CHARGES
----------------------
   0 C :   -0.000049
   1 O :   -0.000638
   2 H :   -0.000522
   3 H :   -0.000001
   4 H :   -0.000002
   5 H :   -0.000001
   6 C :   -0.342495
   7 O :   -0.098158
   8 H :    0.158705
   9 H :    0.093593
  10 H :    0.088375
  11 H :    0.101193

  Mayer bond orders larger than 0.1
B(  6-C ,  7-O ) :   0.9887 B(  6-C ,  9-H ) :   0.9774 B(  6-C , 10-H ) :   0.9798
B(  6-C , 11-H ) :   0.9736 B(  7-O ,  8-H ) :   0.9014

Dispersion correction           -0.000246425
FINAL SINGLE POINT ENERGY      -115.732594315880

DIPOLE MOMENT
-------------
                                X             Y             Z
Electronic contribution:      0.85400      -1.54000       0.37938
Nuclear contribution   :     -0.68841       2.23416      -0.27928
                        -----------------------------------------
Total Dipole Moment    :      0.16559       0.69416       0.10010
                        -----------------------------------------
Magnitude (a.u.)       :      0.72062
Magnitude (Debye)      :      1.83167

Rotational constants in cm-1:     4.608683     0.799926     0.770096
Rotational constants in MHz : 138164.854590 23981.165030 23086.906955

                             ****ORCA TERMINATED NORMALLY****
TOTAL RUN TIME: 0 days 0 hours 0 minutes 55 seconds 3 msec
