                         Program Version 4.1.2  - RELEASE  -
|  1> #Run DFT-D3 single point of the dimer
|  2> ! wB97X-D3 def2-TZVP TIGHTSCF CHELPG PMODEL PAL8
|  3>
|  4> %base "9-40_DFT_AB"
|  5>
|  6> %scf
|  7> MaxIter 1000
|  8> end
|  9>
| 10> * xyz 0 1
| 11>   C                      9.668153             -8.802298            3.443174
| 12>   O                      9.283030             -9.279826            2.182614
| 13>   H                      8.535800             -9.932465            2.235001
| 14>   H                      10.301862            -9.574787            3.917111
| 15>   H                      10.289359            -7.879110            3.349851
| 16>   H                      8.819729             -8.629750            4.115209
| 17>   C                      7.083685             -11.000572           0.656997
| 18>   O                      6.888350             -10.820144           2.020133
| 19>   H                      6.290547             -11.506684           2.172828
| 20>   H                      7.573634             -11.925657           0.424144
| 21>   H                      6.139743             -11.081327           0.195150
| 22>   H                      7.618662             -10.076014           0.348155
| 23> *
| 24>
| 25> #Run DFT-D3 single point of the molecule with dimer basis set
| 26> $new_job
| 27> %base "9-40_DFT_A"
| 28> ! wB97X-D3 def2-TZVP TIGHTSCF CHELPG PMODEL
| 29>
| 30> %scf
| 31> MaxIter 1000
| 32> end
| 33>
| 34> * xyz 0 1
| 35>   C                      9.668153             -8.802298            3.443174
| 36>   O                      9.283030             -9.279826            2.182614
| 37>   H                      8.535800             -9.932465            2.235001
| 38>   H                      10.301862            -9.574787            3.917111
| 39>   H                      10.289359            -7.879110            3.349851
| 40>   H                      8.819729             -8.629750            4.115209
| 41>   C                    : 7.083685             -11.000572           0.656997
| 42>   O                    : 6.888350             -10.820144           2.020133
| 43>   H                    : 6.290547             -11.506684           2.172828
| 44>   H                    : 7.573634             -11.925657           0.424144
| 45>   H                    : 6.139743             -11.081327           0.195150
| 46>   H                    : 7.618662             -10.076014           0.348155
| 47> *
| 48>
| 49> #Run DFT-D3 single point of the particle with dimer basis set
| 50> $new_job
| 51> %base "9-40_DFT_B"
| 52> ! wB97X-D3 def2-TZVP TIGHTSCF CHELPG PMODEL
| 53>
| 54> %scf
| 55> MaxIter 1000
| 56> end
| 57>
| 58> * xyz 0 1
| 59>   C                    : 9.668153             -8.802298            3.443174
| 60>   O                    : 9.283030             -9.279826            2.182614
| 61>   H                    : 8.535800             -9.932465            2.235001
| 62>   H                    : 10.301862            -9.574787            3.917111
| 63>   H                    : 10.289359            -7.879110            3.349851
| 64>   H                    : 8.819729             -8.629750            4.115209
| 65>   C                      7.083685             -11.000572           0.656997
| 66>   O                      6.888350             -10.820144           2.020133
| 67>   H                      6.290547             -11.506684           2.172828
| 68>   H                      7.573634             -11.925657           0.424144
| 69>   H                      6.139743             -11.081327           0.195150
| 70>   H                      7.618662             -10.076014           0.348155
| 71> *
| 72>
| 73>                          ****END OF INPUT****
 Total Charge           Charge          ....    0
 Multiplicity           Mult            ....    1
 Number of Electrons    NEL             ....   36
Dispersion correction           -0.001646731
FINAL SINGLE POINT ENERGY      -231.468653264555
Dispersion correction           -0.000248151
FINAL SINGLE POINT ENERGY      -115.734292600727

CARTESIAN COORDINATES (ANGSTROEM)
---------------------------------
  C      9.668153   -8.802298    3.443174
  O      9.283030   -9.279826    2.182614
  H      8.535800   -9.932465    2.235001
  H     10.301862   -9.574787    3.917111
  H     10.289359   -7.879110    3.349851
  H      8.819729   -8.629750    4.115209
  C      7.083685  -11.000572    0.656997
  O      6.888350  -10.820144    2.020133
  H      6.290547  -11.506684    2.172828
  H      7.573634  -11.925657    0.424144
  H      6.139743  -11.081327    0.195150
  H      7.618662  -10.076014    0.348155

 Multiplicity           Mult            ....    1
 Number of Electrons    NEL             ....   18
 Basis Dimension        Dim             ....  172

ORBITAL ENERGIES
----------------

  NO   OCC          E(Eh)            E(eV)
   0   2.0000     -19.225884      -523.1629
   1   2.0000     -10.305938      -280.4388
   2   2.0000      -1.158559       -31.5260
   3   2.0000      -0.794690       -21.6246
   4   2.0000      -0.627604       -17.0780
   5   2.0000      -0.549583       -14.9549
   6   2.0000      -0.521680       -14.1956
   7   2.0000      -0.448271       -12.1981
   8   2.0000      -0.372379       -10.1330
   9   0.0000       0.099131         2.6975
  10   0.0000       0.122008         3.3200
  11   0.0000       0.162999         4.4354
  12   0.0000       0.183586         4.9956
  13   0.0000       0.203605         5.5404

MULLIKEN ATOMIC CHARGES
-----------------------
   0 C :    0.000070
   1 O :   -0.000307
   2 H :   -0.001341
   3 H :   -0.000101
   4 H :   -0.000106
   5 H :   -0.001056
   6 C :   -0.171451
   7 O :   -0.442904
   8 H :    0.296380
   9 H :    0.100821
  10 H :    0.103421
  11 H :    0.116574
Sum of atomic charges:   -0.0000000

LOEWDIN ATOMIC CHARGES
----------------------
   0 C :   -0.001724
   1 O :   -0.005440
   2 H :   -0.039724
   3 H :   -0.000047
   4 H :   -0.000021
   5 H :   -0.000386
   6 C :   -0.388965
   7 O :   -0.009623
   8 H :    0.148162
   9 H :    0.089977
  10 H :    0.087453
  11 H :    0.120340

  Mayer bond orders larger than 0.1
B(  6-C ,  7-O ) :   0.9826 B(  6-C ,  9-H ) :   0.9706 B(  6-C , 10-H ) :   0.9830
B(  6-C , 11-H ) :   0.9830 B(  7-O ,  8-H ) :   0.9157

Dispersion correction           -0.000181771
FINAL SINGLE POINT ENERGY      -115.727459878441

DIPOLE MOMENT
-------------
                                X             Y             Z
Electronic contribution:     -0.11336       0.31984       1.70996
Nuclear contribution   :     -0.21915      -0.81821      -2.12422
                        -----------------------------------------
Total Dipole Moment    :     -0.33251      -0.49837      -0.41426
                        -----------------------------------------
Magnitude (a.u.)       :      0.72839
Magnitude (Debye)      :      1.85142

Rotational constants in cm-1:     4.262226     0.892200     0.843870
Rotational constants in MHz : 127778.320342 26747.488326 25298.590750

                             ****ORCA TERMINATED NORMALLY****
TOTAL RUN TIME: 0 days 0 hours 0 minutes 45 seconds 573 msec
