                         Program Version 4.1.2  - RELEASE  -
|  1> #Run DFT-D3 single point of the dimer
|  2> ! wB97X-D3 def2-TZVP TIGHTSCF CHELPG PMODEL PAL8
|  3>
|  4> %base "20-7_DFT_AB"
|  5>
|  6> %scf
|  7> MaxIter 1000
|  8> end
|  9>
| 10> * xyz 0 1
| 11>   C                      -4.029221            8.344015             5.610913
| 12>   O                      -2.999871            7.977746             4.667712
| 13>   H                      -3.310125            8.320182             3.789893
| 14>   H                      -3.622109            8.473960             6.626864
| 15>   H                      -4.597087            9.250479             5.314208
| 16>   H                      -4.851451            7.575020             5.727861
| 17>   C                      -2.740408            10.748468            9.443473
| 18>   O                      -2.519785            10.707064            10.825847
| 19>   H                      -3.362915            10.416062            11.085758
| 20>   H                      -3.324325            9.858892             9.129484
| 21>   H                      -3.275789            11.631485            9.139751
| 22>   H                      -1.777463            10.710860            8.890713
| 23> *
| 24>
| 25> #Run DFT-D3 single point of the molecule with dimer basis set
| 26> $new_job
| 27> %base "20-7_DFT_A"
| 28> ! wB97X-D3 def2-TZVP TIGHTSCF CHELPG PMODEL
| 29>
| 30> %scf
| 31> MaxIter 1000
| 32> end
| 33>
| 34> * xyz 0 1
| 35>   C                      -4.029221            8.344015             5.610913
| 36>   O                      -2.999871            7.977746             4.667712
| 37>   H                      -3.310125            8.320182             3.789893
| 38>   H                      -3.622109            8.473960             6.626864
| 39>   H                      -4.597087            9.250479             5.314208
| 40>   H                      -4.851451            7.575020             5.727861
| 41>   C                    : -2.740408            10.748468            9.443473
| 42>   O                    : -2.519785            10.707064            10.825847
| 43>   H                    : -3.362915            10.416062            11.085758
| 44>   H                    : -3.324325            9.858892             9.129484
| 45>   H                    : -3.275789            11.631485            9.139751
| 46>   H                    : -1.777463            10.710860            8.890713
| 47> *
| 48>
| 49> #Run DFT-D3 single point of the particle with dimer basis set
| 50> $new_job
| 51> %base "20-7_DFT_B"
| 52> ! wB97X-D3 def2-TZVP TIGHTSCF CHELPG PMODEL
| 53>
| 54> %scf
| 55> MaxIter 1000
| 56> end
| 57>
| 58> * xyz 0 1
| 59>   C                    : -4.029221            8.344015             5.610913
| 60>   O                    : -2.999871            7.977746             4.667712
| 61>   H                    : -3.310125            8.320182             3.789893
| 62>   H                    : -3.622109            8.473960             6.626864
| 63>   H                    : -4.597087            9.250479             5.314208
| 64>   H                    : -4.851451            7.575020             5.727861
| 65>   C                      -2.740408            10.748468            9.443473
| 66>   O                      -2.519785            10.707064            10.825847
| 67>   H                      -3.362915            10.416062            11.085758
| 68>   H                      -3.324325            9.858892             9.129484
| 69>   H                      -3.275789            11.631485            9.139751
| 70>   H                      -1.777463            10.710860            8.890713
| 71> *
| 72>
| 73>                          ****END OF INPUT****
 Total Charge           Charge          ....    0
 Multiplicity           Mult            ....    1
 Number of Electrons    NEL             ....   36
Dispersion correction           -0.000948004
FINAL SINGLE POINT ENERGY      -231.464230105562
Dispersion correction           -0.000277109
FINAL SINGLE POINT ENERGY      -115.732073704165

CARTESIAN COORDINATES (ANGSTROEM)
---------------------------------
  C     -4.029221    8.344015    5.610913
  O     -2.999871    7.977746    4.667712
  H     -3.310125    8.320182    3.789893
  H     -3.622109    8.473960    6.626864
  H     -4.597087    9.250479    5.314208
  H     -4.851451    7.575020    5.727861
  C     -2.740408   10.748468    9.443473
  O     -2.519785   10.707064   10.825847
  H     -3.362915   10.416062   11.085758
  H     -3.324325    9.858892    9.129484
  H     -3.275789   11.631485    9.139751
  H     -1.777463   10.710860    8.890713

 Multiplicity           Mult            ....    1
 Number of Electrons    NEL             ....   18
 Basis Dimension        Dim             ....  172

ORBITAL ENERGIES
----------------

  NO   OCC          E(Eh)            E(eV)
   0   2.0000     -19.230090      -523.2773
   1   2.0000     -10.314001      -280.6582
   2   2.0000      -1.154832       -31.4246
   3   2.0000      -0.791525       -21.5385
   4   2.0000      -0.616364       -16.7721
   5   2.0000      -0.548293       -14.9198
   6   2.0000      -0.527664       -14.3585
   7   2.0000      -0.441678       -12.0187
   8   2.0000      -0.375835       -10.2270
   9   0.0000       0.082600         2.2477
  10   0.0000       0.116335         3.1656
  11   0.0000       0.145524         3.9599
  12   0.0000       0.171223         4.6592
  13   0.0000       0.191609         5.2139

MULLIKEN ATOMIC CHARGES
-----------------------
   0 C :    0.000985
   1 O :   -0.000020
   2 H :   -0.000001
   3 H :   -0.002083
   4 H :   -0.000045
   5 H :   -0.000057
   6 C :   -0.179289
   7 O :   -0.448226
   8 H :    0.310285
   9 H :    0.100120
  10 H :    0.103757
  11 H :    0.114575
Sum of atomic charges:    0.0000000

LOEWDIN ATOMIC CHARGES
----------------------
   0 C :   -0.000460
   1 O :   -0.000007
   2 H :   -0.000000
   3 H :   -0.001757
   4 H :   -0.000013
   5 H :   -0.000004
   6 C :   -0.400886
   7 O :   -0.050688
   8 H :    0.155270
   9 H :    0.098270
  10 H :    0.089922
  11 H :    0.110353

  Mayer bond orders larger than 0.1
B(  6-C ,  7-O ) :   1.0014 B(  6-C ,  9-H ) :   0.9890 B(  6-C , 10-H ) :   0.9685
B(  6-C , 11-H ) :   0.9747 B(  7-O ,  8-H ) :   0.9099

Dispersion correction           -0.000208371
FINAL SINGLE POINT ENERGY      -115.731895461269

DIPOLE MOMENT
-------------
                                X             Y             Z
Electronic contribution:      0.44793       0.06045       1.83958
Nuclear contribution   :     -1.05016      -0.23139      -2.19330
                        -----------------------------------------
Total Dipole Moment    :     -0.60224      -0.17094      -0.35372
                        -----------------------------------------
Magnitude (a.u.)       :      0.71904
Magnitude (Debye)      :      1.82767

Rotational constants in cm-1:     4.244071     0.857175     0.823499
Rotational constants in MHz : 127234.054237 25697.458012 24687.881008

                             ****ORCA TERMINATED NORMALLY****
TOTAL RUN TIME: 0 days 0 hours 0 minutes 57 seconds 321 msec
