                         Program Version 4.1.2  - RELEASE  -
|  1> #Run DFT-D3 single point of the dimer
|  2> ! wB97X-D3 def2-TZVP TIGHTSCF CHELPG PMODEL PAL8
|  3>
|  4> %base "3-156_DFT_AB"
|  5>
|  6> %scf
|  7> MaxIter 1000
|  8> end
|  9>
| 10> * xyz 0 1
| 11>   C                      6.369187             -9.904875            -6.703849
| 12>   O                      6.245421             -9.413843            -5.411142
| 13>   H                      6.942337             -9.718965            -4.856947
| 14>   H                      5.664437             -9.421000            -7.422368
| 15>   H                      7.396688             -9.835106            -7.022802
| 16>   H                      6.137889             -10.954571           -6.839164
| 17>   C                      10.813734            -7.524345            -5.822987
| 18>   O                      10.452674            -8.536013            -6.685280
| 19>   H                      9.900976             -9.172728            -6.264489
| 20>   H                      11.131674            -6.599680            -6.439249
| 21>   H                      10.085984            -7.191105            -5.042479
| 22>   H                      11.660104            -7.883414            -5.198647
| 23> *
| 24>
| 25> #Run DFT-D3 single point of the molecule with dimer basis set
| 26> $new_job
| 27> %base "3-156_DFT_A"
| 28> ! wB97X-D3 def2-TZVP TIGHTSCF CHELPG PMODEL
| 29>
| 30> %scf
| 31> MaxIter 1000
| 32> end
| 33>
| 34> * xyz 0 1
| 35>   C                      6.369187             -9.904875            -6.703849
| 36>   O                      6.245421             -9.413843            -5.411142
| 37>   H                      6.942337             -9.718965            -4.856947
| 38>   H                      5.664437             -9.421000            -7.422368
| 39>   H                      7.396688             -9.835106            -7.022802
| 40>   H                      6.137889             -10.954571           -6.839164
| 41>   C                    : 10.813734            -7.524345            -5.822987
| 42>   O                    : 10.452674            -8.536013            -6.685280
| 43>   H                    : 9.900976             -9.172728            -6.264489
| 44>   H                    : 11.131674            -6.599680            -6.439249
| 45>   H                    : 10.085984            -7.191105            -5.042479
| 46>   H                    : 11.660104            -7.883414            -5.198647
| 47> *
| 48>
| 49> #Run DFT-D3 single point of the particle with dimer basis set
| 50> $new_job
| 51> %base "3-156_DFT_B"
| 52> ! wB97X-D3 def2-TZVP TIGHTSCF CHELPG PMODEL
| 53>
| 54> %scf
| 55> MaxIter 1000
| 56> end
| 57>
| 58> * xyz 0 1
| 59>   C                    : 6.369187             -9.904875            -6.703849
| 60>   O                    : 6.245421             -9.413843            -5.411142
| 61>   H                    : 6.942337             -9.718965            -4.856947
| 62>   H                    : 5.664437             -9.421000            -7.422368
| 63>   H                    : 7.396688             -9.835106            -7.022802
| 64>   H                    : 6.137889             -10.954571           -6.839164
| 65>   C                      10.813734            -7.524345            -5.822987
| 66>   O                      10.452674            -8.536013            -6.685280
| 67>   H                      9.900976             -9.172728            -6.264489
| 68>   H                      11.131674            -6.599680            -6.439249
| 69>   H                      10.085984            -7.191105            -5.042479
| 70>   H                      11.660104            -7.883414            -5.198647
| 71> *
| 72>
| 73>                          ****END OF INPUT****
 Total Charge           Charge          ....    0
 Multiplicity           Mult            ....    1
 Number of Electrons    NEL             ....   36
Dispersion correction           -0.001205056
FINAL SINGLE POINT ENERGY      -231.463178451028
Dispersion correction           -0.000240114
FINAL SINGLE POINT ENERGY      -115.732681176565

CARTESIAN COORDINATES (ANGSTROEM)
---------------------------------
  C      6.369187   -9.904875   -6.703849
  O      6.245421   -9.413843   -5.411142
  H      6.942337   -9.718965   -4.856947
  H      5.664437   -9.421000   -7.422368
  H      7.396688   -9.835106   -7.022802
  H      6.137889  -10.954571   -6.839164
  C     10.813734   -7.524345   -5.822987
  O     10.452674   -8.536013   -6.685280
  H      9.900976   -9.172728   -6.264489
  H     11.131674   -6.599680   -6.439249
  H     10.085984   -7.191105   -5.042479
  H     11.660104   -7.883414   -5.198647

 Multiplicity           Mult            ....    1
 Number of Electrons    NEL             ....   18
 Basis Dimension        Dim             ....  172

ORBITAL ENERGIES
----------------

  NO   OCC          E(Eh)            E(eV)
   0   2.0000     -19.231108      -523.3051
   1   2.0000     -10.320972      -280.8479
   2   2.0000      -1.151596       -31.3365
   3   2.0000      -0.791528       -21.5386
   4   2.0000      -0.625178       -17.0119
   5   2.0000      -0.539106       -14.6698
   6   2.0000      -0.524003       -14.2588
   7   2.0000      -0.430993       -11.7279
   8   2.0000      -0.369450       -10.0533
   9   0.0000       0.075931         2.0662
  10   0.0000       0.124425         3.3858
  11   0.0000       0.151676         4.1273
  12   0.0000       0.164898         4.4871
  13   0.0000       0.193149         5.2558

MULLIKEN ATOMIC CHARGES
-----------------------
   0 C :    0.002549
   1 O :    0.000023
   2 H :   -0.000238
   3 H :   -0.000073
   4 H :   -0.006243
   5 H :   -0.000218
   6 C :   -0.166638
   7 O :   -0.462668
   8 H :    0.317396
   9 H :    0.117353
  10 H :    0.100592
  11 H :    0.098165
Sum of atomic charges:   -0.0000000

LOEWDIN ATOMIC CHARGES
----------------------
   0 C :   -0.000895
   1 O :   -0.000037
   2 H :   -0.000213
   3 H :   -0.000005
   4 H :   -0.002492
   5 H :   -0.000015
   6 C :   -0.426298
   7 O :   -0.038713
   8 H :    0.159282
   9 H :    0.119378
  10 H :    0.095316
  11 H :    0.094693

  Mayer bond orders larger than 0.1
B(  6-C ,  7-O ) :   1.0013 B(  6-C ,  9-H ) :   0.9698 B(  6-C , 10-H ) :   0.9664
B(  6-C , 11-H ) :   0.9815 B(  7-O ,  8-H ) :   0.8954

Dispersion correction           -0.000253836
FINAL SINGLE POINT ENERGY      -115.730899492087

DIPOLE MOMENT
-------------
                                X             Y             Z
Electronic contribution:     -0.51989      -1.32082      -1.28946
Nuclear contribution   :      0.28355       1.27378       1.89385
                        -----------------------------------------
Total Dipole Moment    :     -0.23634      -0.04704       0.60439
                        -----------------------------------------
Magnitude (a.u.)       :      0.65066
Magnitude (Debye)      :      1.65384

Rotational constants in cm-1:     4.219730     0.855624     0.817299
Rotational constants in MHz : 126504.316480 25650.950303 24502.005266

                             ****ORCA TERMINATED NORMALLY****
TOTAL RUN TIME: 0 days 0 hours 6 minutes 23 seconds 343 msec
