                         Program Version 4.1.2  - RELEASE  -
|  1> #Run DFT-D3 single point of the dimer
|  2> ! wB97X-D3 def2-TZVP TIGHTSCF CHELPG PMODEL PAL8
|  3>
|  4> %base "10-134_DFT_AB"
|  5>
|  6> %scf
|  7> MaxIter 1000
|  8> end
|  9>
| 10> * xyz 0 1
| 11>   C                      3.771709             8.520026             -2.309033
| 12>   O                      4.367163             8.443631             -3.620214
| 13>   H                      5.116592             9.031496             -3.647781
| 14>   H                      3.720613             9.562944             -1.984320
| 15>   H                      2.808419             8.065377             -2.246526
| 16>   H                      4.336444             7.999039             -1.611922
| 17>   C                      6.976497             8.006726             -7.057729
| 18>   O                      7.408445             9.358313             -6.936746
| 19>   H                      7.372370             9.843564             -7.800199
| 20>   H                      6.427452             7.731948             -7.882621
| 21>   H                      7.838230             7.343526             -7.132434
| 22>   H                      6.382113             7.740143             -6.200561
| 23> *
| 24>
| 25> #Run DFT-D3 single point of the molecule with dimer basis set
| 26> $new_job
| 27> %base "10-134_DFT_A"
| 28> ! wB97X-D3 def2-TZVP TIGHTSCF CHELPG PMODEL
| 29>
| 30> %scf
| 31> MaxIter 1000
| 32> end
| 33>
| 34> * xyz 0 1
| 35>   C                      3.771709             8.520026             -2.309033
| 36>   O                      4.367163             8.443631             -3.620214
| 37>   H                      5.116592             9.031496             -3.647781
| 38>   H                      3.720613             9.562944             -1.984320
| 39>   H                      2.808419             8.065377             -2.246526
| 40>   H                      4.336444             7.999039             -1.611922
| 41>   C                    : 6.976497             8.006726             -7.057729
| 42>   O                    : 7.408445             9.358313             -6.936746
| 43>   H                    : 7.372370             9.843564             -7.800199
| 44>   H                    : 6.427452             7.731948             -7.882621
| 45>   H                    : 7.838230             7.343526             -7.132434
| 46>   H                    : 6.382113             7.740143             -6.200561
| 47> *
| 48>
| 49> #Run DFT-D3 single point of the particle with dimer basis set
| 50> $new_job
| 51> %base "10-134_DFT_B"
| 52> ! wB97X-D3 def2-TZVP TIGHTSCF CHELPG PMODEL
| 53>
| 54> %scf
| 55> MaxIter 1000
| 56> end
| 57>
| 58> * xyz 0 1
| 59>   C                    : 3.771709             8.520026             -2.309033
| 60>   O                    : 4.367163             8.443631             -3.620214
| 61>   H                    : 5.116592             9.031496             -3.647781
| 62>   H                    : 3.720613             9.562944             -1.984320
| 63>   H                    : 2.808419             8.065377             -2.246526
| 64>   H                    : 4.336444             7.999039             -1.611922
| 65>   C                      6.976497             8.006726             -7.057729
| 66>   O                      7.408445             9.358313             -6.936746
| 67>   H                      7.372370             9.843564             -7.800199
| 68>   H                      6.427452             7.731948             -7.882621
| 69>   H                      7.838230             7.343526             -7.132434
| 70>   H                      6.382113             7.740143             -6.200561
| 71> *
| 72>
| 73>                          ****END OF INPUT****
 Total Charge           Charge          ....    0
 Multiplicity           Mult            ....    1
 Number of Electrons    NEL             ....   36
Dispersion correction           -0.000941873
FINAL SINGLE POINT ENERGY      -231.463311410802
Dispersion correction           -0.000238944
FINAL SINGLE POINT ENERGY      -115.732227531002

CARTESIAN COORDINATES (ANGSTROEM)
---------------------------------
  C      3.771709    8.520026   -2.309033
  O      4.367163    8.443631   -3.620214
  H      5.116592    9.031496   -3.647781
  H      3.720613    9.562944   -1.984320
  H      2.808419    8.065377   -2.246526
  H      4.336444    7.999039   -1.611922
  C      6.976497    8.006726   -7.057729
  O      7.408445    9.358313   -6.936746
  H      7.372370    9.843564   -7.800199
  H      6.427452    7.731948   -7.882621
  H      7.838230    7.343526   -7.132434
  H      6.382113    7.740143   -6.200561

 Multiplicity           Mult            ....    1
 Number of Electrons    NEL             ....   18
 Basis Dimension        Dim             ....  172

ORBITAL ENERGIES
----------------

  NO   OCC          E(Eh)            E(eV)
   0   2.0000     -19.231766      -523.3230
   1   2.0000     -10.303429      -280.3706
   2   2.0000      -1.124036       -30.5866
   3   2.0000      -0.803784       -21.8721
   4   2.0000      -0.615287       -16.7428
   5   2.0000      -0.539453       -14.6793
   6   2.0000      -0.519758       -14.1433
   7   2.0000      -0.435126       -11.8404
   8   2.0000      -0.371947       -10.1212
   9   0.0000       0.090267         2.4563
  10   0.0000       0.113892         3.0992
  11   0.0000       0.147544         4.0149
  12   0.0000       0.168054         4.5730
  13   0.0000       0.197870         5.3843

MULLIKEN ATOMIC CHARGES
-----------------------
   0 C :   -0.000087
   1 O :   -0.000051
   2 H :    0.000155
   3 H :    0.000001
   4 H :   -0.000006
   5 H :    0.000009
   6 C :   -0.166642
   7 O :   -0.489168
   8 H :    0.318451
   9 H :    0.116440
  10 H :    0.101161
  11 H :    0.119737
Sum of atomic charges:   -0.0000000

LOEWDIN ATOMIC CHARGES
----------------------
   0 C :   -0.000034
   1 O :   -0.000350
   2 H :   -0.000331
   3 H :   -0.000001
   4 H :   -0.000002
   5 H :   -0.000001
   6 C :   -0.371820
   7 O :   -0.097106
   8 H :    0.184911
   9 H :    0.082472
  10 H :    0.098258
  11 H :    0.104003

  Mayer bond orders larger than 0.1
B(  6-C ,  7-O ) :   1.0079 B(  6-C ,  9-H ) :   0.9737 B(  6-C , 10-H ) :   0.9815
B(  6-C , 11-H ) :   0.9753 B(  7-O ,  8-H ) :   0.8923

Dispersion correction           -0.000263303
FINAL SINGLE POINT ENERGY      -115.729411044716

DIPOLE MOMENT
-------------
                                X             Y             Z
Electronic contribution:      0.48585       1.75677       0.23087
Nuclear contribution   :     -0.71259      -2.00431      -0.86915
                        -----------------------------------------
Total Dipole Moment    :     -0.22674      -0.24754      -0.63828
                        -----------------------------------------
Magnitude (a.u.)       :      0.72117
Magnitude (Debye)      :      1.83306

Rotational constants in cm-1:     4.580157     0.811278     0.786648
Rotational constants in MHz : 137309.648917 24321.488266 23583.122786

                             ****ORCA TERMINATED NORMALLY****
TOTAL RUN TIME: 0 days 0 hours 0 minutes 57 seconds 814 msec
