                         Program Version 4.1.2  - RELEASE  -
|  1> #Run DFT-D3 single point of the dimer
|  2> ! wB97X-D3 def2-TZVP TIGHTSCF CHELPG PMODEL PAL8
|  3>
|  4> %base "13-112_DFT_AB"
|  5>
|  6> %scf
|  7> MaxIter 1000
|  8> end
|  9>
| 10> * xyz 0 1
| 11>   C                      -6.030512            6.655904             1.816928
| 12>   O                      -5.728468            6.776601             3.218112
| 13>   H                      -4.798940            6.874311             3.255842
| 14>   H                      -7.104650            6.813739             1.601745
| 15>   H                      -5.444522            7.352368             1.185617
| 16>   H                      -5.877691            5.637061             1.551672
| 17>   C                      -6.157454            10.005180            5.000635
| 18>   O                      -7.012671            9.226287             4.226335
| 19>   H                      -6.640607            8.534934             3.691516
| 20>   H                      -5.172978            10.178861            4.437589
| 21>   H                      -6.692269            10.953788            5.047580
| 22>   H                      -5.897147            9.620161             5.962352
| 23> *
| 24>
| 25> #Run DFT-D3 single point of the molecule with dimer basis set
| 26> $new_job
| 27> %base "13-112_DFT_A"
| 28> ! wB97X-D3 def2-TZVP TIGHTSCF CHELPG PMODEL
| 29>
| 30> %scf
| 31> MaxIter 1000
| 32> end
| 33>
| 34> * xyz 0 1
| 35>   C                      -6.030512            6.655904             1.816928
| 36>   O                      -5.728468            6.776601             3.218112
| 37>   H                      -4.798940            6.874311             3.255842
| 38>   H                      -7.104650            6.813739             1.601745
| 39>   H                      -5.444522            7.352368             1.185617
| 40>   H                      -5.877691            5.637061             1.551672
| 41>   C                    : -6.157454            10.005180            5.000635
| 42>   O                    : -7.012671            9.226287             4.226335
| 43>   H                    : -6.640607            8.534934             3.691516
| 44>   H                    : -5.172978            10.178861            4.437589
| 45>   H                    : -6.692269            10.953788            5.047580
| 46>   H                    : -5.897147            9.620161             5.962352
| 47> *
| 48>
| 49> #Run DFT-D3 single point of the particle with dimer basis set
| 50> $new_job
| 51> %base "13-112_DFT_B"
| 52> ! wB97X-D3 def2-TZVP TIGHTSCF CHELPG PMODEL
| 53>
| 54> %scf
| 55> MaxIter 1000
| 56> end
| 57>
| 58> * xyz 0 1
| 59>   C                    : -6.030512            6.655904             1.816928
| 60>   O                    : -5.728468            6.776601             3.218112
| 61>   H                    : -4.798940            6.874311             3.255842
| 62>   H                    : -7.104650            6.813739             1.601745
| 63>   H                    : -5.444522            7.352368             1.185617
| 64>   H                    : -5.877691            5.637061             1.551672
| 65>   C                      -6.157454            10.005180            5.000635
| 66>   O                      -7.012671            9.226287             4.226335
| 67>   H                      -6.640607            8.534934             3.691516
| 68>   H                      -5.172978            10.178861            4.437589
| 69>   H                      -6.692269            10.953788            5.047580
| 70>   H                      -5.897147            9.620161             5.962352
| 71> *
| 72>
| 73>                          ****END OF INPUT****
 Total Charge           Charge          ....    0
 Multiplicity           Mult            ....    1
 Number of Electrons    NEL             ....   36
Dispersion correction           -0.001720963
FINAL SINGLE POINT ENERGY      -231.470680692119
Dispersion correction           -0.000238998
FINAL SINGLE POINT ENERGY      -115.733454008815

CARTESIAN COORDINATES (ANGSTROEM)
---------------------------------
  C     -6.030512    6.655904    1.816928
  O     -5.728468    6.776601    3.218112
  H     -4.798940    6.874311    3.255842
  H     -7.104650    6.813739    1.601745
  H     -5.444522    7.352368    1.185617
  H     -5.877691    5.637061    1.551672
  C     -6.157454   10.005180    5.000635
  O     -7.012671    9.226287    4.226335
  H     -6.640607    8.534934    3.691516
  H     -5.172978   10.178861    4.437589
  H     -6.692269   10.953788    5.047580
  H     -5.897147    9.620161    5.962352

 Multiplicity           Mult            ....    1
 Number of Electrons    NEL             ....   18
 Basis Dimension        Dim             ....  172

ORBITAL ENERGIES
----------------

  NO   OCC          E(Eh)            E(eV)
   0   2.0000     -19.224728      -523.1314
   1   2.0000     -10.314115      -280.6613
   2   2.0000      -1.138179       -30.9714
   3   2.0000      -0.799158       -21.7462
   4   2.0000      -0.618128       -16.8201
   5   2.0000      -0.544110       -14.8060
   6   2.0000      -0.527520       -14.3545
   7   2.0000      -0.417975       -11.3737
   8   2.0000      -0.372596       -10.1389
   9   0.0000       0.068916         1.8753
  10   0.0000       0.132528         3.6063
  11   0.0000       0.157767         4.2931
  12   0.0000       0.168242         4.5781
  13   0.0000       0.186295         5.0693

MULLIKEN ATOMIC CHARGES
-----------------------
   0 C :   -0.001456
   1 O :   -0.004936
   2 H :   -0.000467
   3 H :    0.000223
   4 H :   -0.000100
   5 H :    0.000088
   6 C :   -0.133061
   7 O :   -0.483713
   8 H :    0.315037
   9 H :    0.088194
  10 H :    0.120542
  11 H :    0.099650
Sum of atomic charges:   -0.0000000

LOEWDIN ATOMIC CHARGES
----------------------
   0 C :   -0.005970
   1 O :   -0.015801
   2 H :   -0.001620
   3 H :   -0.000453
   4 H :   -0.000263
   5 H :   -0.000128
   6 C :   -0.393483
   7 O :   -0.049081
   8 H :    0.166472
   9 H :    0.102628
  10 H :    0.110914
  11 H :    0.086784

  Mayer bond orders larger than 0.1
B(  6-C ,  7-O ) :   0.9850 B(  6-C ,  9-H ) :   0.9828 B(  6-C , 10-H ) :   0.9794
B(  6-C , 11-H ) :   0.9650 B(  7-O ,  8-H ) :   0.9035

Dispersion correction           -0.000257054
FINAL SINGLE POINT ENERGY      -115.730988033593

DIPOLE MOMENT
-------------
                                X             Y             Z
Electronic contribution:     -1.20110      -0.99586      -0.78428
Nuclear contribution   :      1.78206       0.85292       0.73736
                        -----------------------------------------
Total Dipole Moment    :      0.58096      -0.14294      -0.04692
                        -----------------------------------------
Magnitude (a.u.)       :      0.60012
Magnitude (Debye)      :      1.52539

Rotational constants in cm-1:     4.348561     0.844545     0.816424
Rotational constants in MHz : 130366.582883 25318.834828 24475.779262

                             ****ORCA TERMINATED NORMALLY****
TOTAL RUN TIME: 0 days 0 hours 1 minutes 5 seconds 691 msec
