                         Program Version 4.1.2  - RELEASE  -
|  1> #Run DFT geometry optimization
|  2> ! wB97X-D3 def2-TZVP TIGHTSCF Grid5 FinalGrid6 Opt CHELPG PAL4
|  3>
|  4> %base "10_geo_opt"
|  5> %geom MaxIter 500
|  6> end
|  7>
|  8> %geom
|  9>   Constraints
| 10>     { B 5 0 C }
| 11>   end
| 12> end
| 13>
| 14>
| 15> * xyz 0 1
| 16>   C                    3.011067             -1.180488            0.598650
| 17>   O                    4.394433             -1.127641            0.874466
| 18>   H                    4.771956             -0.378613            0.412651
| 19>   H                    2.806194             -1.318556            -0.469191
| 20>   H                    2.611392             -2.039856            1.136057
| 21>   H                    2.484997             -0.284900            0.945501
| 22> *
| 23>
| 24>                          ****END OF INPUT****
 Total Charge           Charge          ....    0
 Multiplicity           Mult            ....    1
 Number of Electrons    NEL             ....   18
Dispersion correction           -0.000239088
FINAL SINGLE POINT ENERGY      -115.738050707376
Dispersion correction            ... done
                    ***********************HURRAY********************

CARTESIAN COORDINATES (ANGSTROEM)
---------------------------------
  C      3.011093   -1.180497    0.598687
  O      4.394467   -1.127623    0.874431
  H      4.771960   -0.378572    0.412655
  H      2.806196   -1.318602   -0.469161
  H      2.611299   -2.039863    1.136012
  H      2.485024   -0.284898    0.945510

 Multiplicity           Mult            ....    1
 Number of Electrons    NEL             ....   18
 Basis Dimension        Dim             ....   86

ORBITAL ENERGIES
----------------

  NO   OCC          E(Eh)            E(eV)
   0   2.0000     -19.228070      -523.2224
   1   2.0000     -10.314997      -280.6853
   2   2.0000      -1.136790       -30.9336
   3   2.0000      -0.795415       -21.6443
   4   2.0000      -0.611621       -16.6431
   5   2.0000      -0.541852       -14.7445
   6   2.0000      -0.526320       -14.3219
   7   2.0000      -0.433798       -11.8042
   8   2.0000      -0.373618       -10.1667
   9   0.0000       0.116659         3.1745
  10   0.0000       0.156706         4.2642
  11   0.0000       0.202593         5.5128
  12   0.0000       0.205195         5.5836
  13   0.0000       0.226390         6.1604

MULLIKEN ATOMIC CHARGES
-----------------------
   0 C :   -0.150788
   1 O :   -0.477694
   2 H :    0.312992
   3 H :    0.098573
   4 H :    0.118183
   5 H :    0.098734
Sum of atomic charges:   -0.0000000

LOEWDIN ATOMIC CHARGES
----------------------
   0 C :   -0.385033
   1 O :   -0.076091
   2 H :    0.165772
   3 H :    0.093418
   4 H :    0.108711
   5 H :    0.093223

  Mayer bond orders larger than 0.1
B(  0-C ,  1-O ) :   0.9986 B(  0-C ,  3-H ) :   0.9756 B(  0-C ,  4-H ) :   0.9750
B(  0-C ,  5-H ) :   0.9756 B(  1-O ,  2-H ) :   0.9002

Dispersion correction           -0.000239098
FINAL SINGLE POINT ENERGY      -115.738050720468

DIPOLE MOMENT
-------------
                                X             Y             Z
Electronic contribution:      1.75531      -0.02724       0.42019
Nuclear contribution   :     -2.06542       0.47512      -0.81769
                        -----------------------------------------
Total Dipole Moment    :     -0.31011       0.44788      -0.39750
                        -----------------------------------------
Magnitude (a.u.)       :      0.67436
Magnitude (Debye)      :      1.71409

Rotational constants in cm-1:     4.295068     0.833880     0.804952
Rotational constants in MHz : 128762.913378 24999.095802 24131.854969

                             ****ORCA TERMINATED NORMALLY****
TOTAL RUN TIME: 0 days 0 hours 0 minutes 35 seconds 389 msec
