                         Program Version 4.1.2  - RELEASE  -
|  1> #Run DFT-D3 single point of the dimer
|  2> ! wB97X-D3 def2-TZVP TIGHTSCF CHELPG PMODEL PAL8
|  3>
|  4> %base "19-156_DFT_AB"
|  5>
|  6> %scf
|  7> MaxIter 1000
|  8> end
|  9>
| 10> * xyz 0 1
| 11>   C                      -2.826672            3.168697             7.311766
| 12>   O                      -2.985900            2.187477             8.339613
| 13>   H                      -2.080365            1.979500             8.637292
| 14>   H                      -2.631409            4.182728             7.755383
| 15>   H                      -1.965593            2.904438             6.677685
| 16>   H                      -3.653128            3.269334             6.564215
| 17>   C                      -1.171793            5.934240             5.579448
| 18>   O                      -0.309131            4.850648             5.364397
| 19>   H                      -0.566829            4.437277             4.482448
| 20>   H                      -1.154150            6.680770             4.732149
| 21>   H                      -2.241465            5.558941             5.543396
| 22>   H                      -0.988504            6.613440             6.458835
| 23> *
| 24>
| 25> #Run DFT-D3 single point of the molecule with dimer basis set
| 26> $new_job
| 27> %base "19-156_DFT_A"
| 28> ! wB97X-D3 def2-TZVP TIGHTSCF CHELPG PMODEL
| 29>
| 30> %scf
| 31> MaxIter 1000
| 32> end
| 33>
| 34> * xyz 0 1
| 35>   C                      -2.826672            3.168697             7.311766
| 36>   O                      -2.985900            2.187477             8.339613
| 37>   H                      -2.080365            1.979500             8.637292
| 38>   H                      -2.631409            4.182728             7.755383
| 39>   H                      -1.965593            2.904438             6.677685
| 40>   H                      -3.653128            3.269334             6.564215
| 41>   C                    : -1.171793            5.934240             5.579448
| 42>   O                    : -0.309131            4.850648             5.364397
| 43>   H                    : -0.566829            4.437277             4.482448
| 44>   H                    : -1.154150            6.680770             4.732149
| 45>   H                    : -2.241465            5.558941             5.543396
| 46>   H                    : -0.988504            6.613440             6.458835
| 47> *
| 48>
| 49> #Run DFT-D3 single point of the particle with dimer basis set
| 50> $new_job
| 51> %base "19-156_DFT_B"
| 52> ! wB97X-D3 def2-TZVP TIGHTSCF CHELPG PMODEL
| 53>
| 54> %scf
| 55> MaxIter 1000
| 56> end
| 57>
| 58> * xyz 0 1
| 59>   C                    : -2.826672            3.168697             7.311766
| 60>   O                    : -2.985900            2.187477             8.339613
| 61>   H                    : -2.080365            1.979500             8.637292
| 62>   H                    : -2.631409            4.182728             7.755383
| 63>   H                    : -1.965593            2.904438             6.677685
| 64>   H                    : -3.653128            3.269334             6.564215
| 65>   C                      -1.171793            5.934240             5.579448
| 66>   O                      -0.309131            4.850648             5.364397
| 67>   H                      -0.566829            4.437277             4.482448
| 68>   H                      -1.154150            6.680770             4.732149
| 69>   H                      -2.241465            5.558941             5.543396
| 70>   H                      -0.988504            6.613440             6.458835
| 71> *
| 72>
| 73>                          ****END OF INPUT****
 Total Charge           Charge          ....    0
 Multiplicity           Mult            ....    1
 Number of Electrons    NEL             ....   36
Dispersion correction           -0.001929436
FINAL SINGLE POINT ENERGY      -231.460548656241
Dispersion correction           -0.000254286
FINAL SINGLE POINT ENERGY      -115.731984150860

CARTESIAN COORDINATES (ANGSTROEM)
---------------------------------
  C     -2.826672    3.168697    7.311766
  O     -2.985900    2.187477    8.339613
  H     -2.080365    1.979500    8.637292
  H     -2.631409    4.182728    7.755383
  H     -1.965593    2.904438    6.677685
  H     -3.653128    3.269334    6.564215
  C     -1.171793    5.934240    5.579448
  O     -0.309131    4.850648    5.364397
  H     -0.566829    4.437277    4.482448
  H     -1.154150    6.680770    4.732149
  H     -2.241465    5.558941    5.543396
  H     -0.988504    6.613440    6.458835

 Multiplicity           Mult            ....    1
 Number of Electrons    NEL             ....   18
 Basis Dimension        Dim             ....  172

ORBITAL ENERGIES
----------------

  NO   OCC          E(Eh)            E(eV)
   0   2.0000     -19.238854      -523.5158
   1   2.0000     -10.324596      -280.9465
   2   2.0000      -1.135155       -30.8891
   3   2.0000      -0.784454       -21.3461
   4   2.0000      -0.609378       -16.5820
   5   2.0000      -0.541372       -14.7315
   6   2.0000      -0.522520       -14.2185
   7   2.0000      -0.430387       -11.7114
   8   2.0000      -0.368318       -10.0224
   9   0.0000       0.085393         2.3237
  10   0.0000       0.118762         3.2317
  11   0.0000       0.143392         3.9019
  12   0.0000       0.167246         4.5510
  13   0.0000       0.197820         5.3830

MULLIKEN ATOMIC CHARGES
-----------------------
   0 C :    0.008653
   1 O :    0.000035
   2 H :   -0.000008
   3 H :   -0.000868
   4 H :   -0.009818
   5 H :   -0.001043
   6 C :   -0.190011
   7 O :   -0.464490
   8 H :    0.325257
   9 H :    0.102515
  10 H :    0.100297
  11 H :    0.129481
Sum of atomic charges:   -0.0000000

LOEWDIN ATOMIC CHARGES
----------------------
   0 C :   -0.007392
   1 O :   -0.000031
   2 H :   -0.000007
   3 H :   -0.002222
   4 H :   -0.006065
   5 H :   -0.000829
   6 C :   -0.417480
   7 O :   -0.082467
   8 H :    0.202808
   9 H :    0.095808
  10 H :    0.101993
  11 H :    0.115883

  Mayer bond orders larger than 0.1
B(  6-C ,  7-O ) :   0.9946 B(  6-C ,  9-H ) :   0.9746 B(  6-C , 10-H ) :   0.9818
B(  6-C , 11-H ) :   0.9663 B(  7-O ,  8-H ) :   0.8847

Dispersion correction           -0.000251791
FINAL SINGLE POINT ENERGY      -115.726807618687

DIPOLE MOMENT
-------------
                                X             Y             Z
Electronic contribution:      1.36046      -1.48385       0.02703
Nuclear contribution   :     -1.82625       1.65638      -0.50105
                        -----------------------------------------
Total Dipole Moment    :     -0.46579       0.17253      -0.47401
                        -----------------------------------------
Magnitude (a.u.)       :      0.68660
Magnitude (Debye)      :      1.74520

Rotational constants in cm-1:     4.135161     0.827520     0.789831
Rotational constants in MHz : 123969.000669 24808.427322 23678.526902

                             ****ORCA TERMINATED NORMALLY****
TOTAL RUN TIME: 0 days 0 hours 0 minutes 49 seconds 665 msec
