                         Program Version 4.1.2  - RELEASE  -
|  1> #Run DFT-D3 single point of the dimer
|  2> ! wB97X-D3 def2-TZVP TIGHTSCF CHELPG PMODEL PAL8
|  3>
|  4> %base "1-142_DFT_AB"
|  5>
|  6> %scf
|  7> MaxIter 1000
|  8> end
|  9>
| 10> * xyz 0 1
| 11>   C                      -8.995400            -9.326998            -3.486232
| 12>   O                      -9.117094            -9.794694            -4.824261
| 13>   H                      -8.440360            -9.306386            -5.286878
| 14>   H                      -7.978663            -9.612132            -3.120251
| 15>   H                      -9.192578            -8.287122            -3.341206
| 16>   H                      -9.619070            -9.861640            -2.775363
| 17>   C                      -11.431967           -10.318018           -4.044742
| 18>   O                      -11.458756           -10.219499           -5.434309
| 19>   H                      -11.343012           -9.302613            -5.677670
| 20>   H                      -11.736917           -9.327433            -3.693890
| 21>   H                      -12.108239           -11.082590           -3.664358
| 22>   H                      -10.423469           -10.476616           -3.653457
| 23> *
| 24>
| 25> #Run DFT-D3 single point of the molecule with dimer basis set
| 26> $new_job
| 27> %base "1-142_DFT_A"
| 28> ! wB97X-D3 def2-TZVP TIGHTSCF CHELPG PMODEL
| 29>
| 30> %scf
| 31> MaxIter 1000
| 32> end
| 33>
| 34> * xyz 0 1
| 35>   C                      -8.995400            -9.326998            -3.486232
| 36>   O                      -9.117094            -9.794694            -4.824261
| 37>   H                      -8.440360            -9.306386            -5.286878
| 38>   H                      -7.978663            -9.612132            -3.120251
| 39>   H                      -9.192578            -8.287122            -3.341206
| 40>   H                      -9.619070            -9.861640            -2.775363
| 41>   C                    : -11.431967           -10.318018           -4.044742
| 42>   O                    : -11.458756           -10.219499           -5.434309
| 43>   H                    : -11.343012           -9.302613            -5.677670
| 44>   H                    : -11.736917           -9.327433            -3.693890
| 45>   H                    : -12.108239           -11.082590           -3.664358
| 46>   H                    : -10.423469           -10.476616           -3.653457
| 47> *
| 48>
| 49> #Run DFT-D3 single point of the particle with dimer basis set
| 50> $new_job
| 51> %base "1-142_DFT_B"
| 52> ! wB97X-D3 def2-TZVP TIGHTSCF CHELPG PMODEL
| 53>
| 54> %scf
| 55> MaxIter 1000
| 56> end
| 57>
| 58> * xyz 0 1
| 59>   C                    : -8.995400            -9.326998            -3.486232
| 60>   O                    : -9.117094            -9.794694            -4.824261
| 61>   H                    : -8.440360            -9.306386            -5.286878
| 62>   H                    : -7.978663            -9.612132            -3.120251
| 63>   H                    : -9.192578            -8.287122            -3.341206
| 64>   H                    : -9.619070            -9.861640            -2.775363
| 65>   C                      -11.431967           -10.318018           -4.044742
| 66>   O                      -11.458756           -10.219499           -5.434309
| 67>   H                      -11.343012           -9.302613            -5.677670
| 68>   H                      -11.736917           -9.327433            -3.693890
| 69>   H                      -12.108239           -11.082590           -3.664358
| 70>   H                      -10.423469           -10.476616           -3.653457
| 71> *
| 72>
| 73>                          ****END OF INPUT****
 Total Charge           Charge          ....    0
 Multiplicity           Mult            ....    1
 Number of Electrons    NEL             ....   36
Dispersion correction           -0.002351630
FINAL SINGLE POINT ENERGY      -231.421015867107
Dispersion correction           -0.000234310
FINAL SINGLE POINT ENERGY      -115.733222963233

CARTESIAN COORDINATES (ANGSTROEM)
---------------------------------
  C     -8.995400   -9.326998   -3.486232
  O     -9.117094   -9.794694   -4.824261
  H     -8.440360   -9.306386   -5.286878
  H     -7.978663   -9.612132   -3.120251
  H     -9.192578   -8.287122   -3.341206
  H     -9.619070   -9.861640   -2.775363
  C    -11.431967  -10.318018   -4.044742
  O    -11.458756  -10.219499   -5.434309
  H    -11.343012   -9.302613   -5.677670
  H    -11.736917   -9.327433   -3.693890
  H    -12.108239  -11.082590   -3.664358
  H    -10.423469  -10.476616   -3.653457

 Multiplicity           Mult            ....    1
 Number of Electrons    NEL             ....   18
 Basis Dimension        Dim             ....  172

ORBITAL ENERGIES
----------------

  NO   OCC          E(Eh)            E(eV)
   0   2.0000     -19.228124      -523.2239
   1   2.0000     -10.311498      -280.5901
   2   2.0000      -1.143642       -31.1201
   3   2.0000      -0.794320       -21.6145
   4   2.0000      -0.616217       -16.7681
   5   2.0000      -0.543068       -14.7776
   6   2.0000      -0.538015       -14.6401
   7   2.0000      -0.428072       -11.6484
   8   2.0000      -0.371686       -10.1141
   9   0.0000       0.082858         2.2547
  10   0.0000       0.124972         3.4007
  11   0.0000       0.153167         4.1679
  12   0.0000       0.180897         4.9225
  13   0.0000       0.195134         5.3099

MULLIKEN ATOMIC CHARGES
-----------------------
   0 C :    0.009092
   1 O :   -0.007150
   2 H :   -0.000747
   3 H :   -0.002189
   4 H :   -0.000388
   5 H :   -0.006787
   6 C :   -0.152957
   7 O :   -0.466813
   8 H :    0.319928
   9 H :    0.095046
  10 H :    0.127559
  11 H :    0.085406
Sum of atomic charges:   -0.0000000

LOEWDIN ATOMIC CHARGES
----------------------
   0 C :   -0.077493
   1 O :   -0.051370
   2 H :   -0.002312
   3 H :   -0.001065
   4 H :   -0.002121
   5 H :   -0.040994
   6 C :   -0.332362
   7 O :   -0.038188
   8 H :    0.171749
   9 H :    0.104817
  10 H :    0.105488
  11 H :    0.163851

  Mayer bond orders larger than 0.1
B(  6-C ,  7-O ) :   1.0084 B(  6-C ,  9-H ) :   1.0025 B(  6-C , 10-H ) :   0.9684
B(  6-C , 11-H ) :   0.9751 B(  7-O ,  8-H ) :   0.8973

Dispersion correction           -0.000223923
FINAL SINGLE POINT ENERGY      -115.733659348165

DIPOLE MOMENT
-------------
                                X             Y             Z
Electronic contribution:     -0.08314      -0.14823      -1.80028
Nuclear contribution   :      0.14527       0.70367       2.17509
                        -----------------------------------------
Total Dipole Moment    :      0.06212       0.55544       0.37481
                        -----------------------------------------
Magnitude (a.u.)       :      0.67294
Magnitude (Debye)      :      1.71049

Rotational constants in cm-1:     4.302189     0.857015     0.823486
Rotational constants in MHz : 128976.371292 25692.650890 24687.484353

                             ****ORCA TERMINATED NORMALLY****
TOTAL RUN TIME: 0 days 0 hours 6 minutes 1 seconds 686 msec
