                         Program Version 4.1.2  - RELEASE  -
|  1> #Run DFT-D3 single point of the dimer
|  2> ! wB97X-D3 def2-TZVP TIGHTSCF CHELPG PMODEL PAL8
|  3>
|  4> %base "10-17_DFT_AB"
|  5>
|  6> %scf
|  7> MaxIter 1000
|  8> end
|  9>
| 10> * xyz 0 1
| 11>   C                      -8.336969            -4.600054            6.961619
| 12>   O                      -7.406997            -4.718792            5.976221
| 13>   H                      -6.557219            -5.068828            6.345814
| 14>   H                      -9.026821            -3.757067            6.800029
| 15>   H                      -9.068774            -5.485411            6.969378
| 16>   H                      -7.848887            -4.496328            7.950912
| 17>   C                      -4.408711            -4.803330            9.541480
| 18>   O                      -3.507719            -5.619174            8.803093
| 19>   H                      -3.577156            -5.385569            7.868004
| 20>   H                      -3.953242            -3.834839            9.823231
| 21>   H                      -5.308709            -4.607049            9.067527
| 22>   H                      -4.647134            -5.268615            10.475084
| 23> *
| 24>
| 25> #Run DFT-D3 single point of the molecule with dimer basis set
| 26> $new_job
| 27> %base "10-17_DFT_A"
| 28> ! wB97X-D3 def2-TZVP TIGHTSCF CHELPG PMODEL
| 29>
| 30> %scf
| 31> MaxIter 1000
| 32> end
| 33>
| 34> * xyz 0 1
| 35>   C                      -8.336969            -4.600054            6.961619
| 36>   O                      -7.406997            -4.718792            5.976221
| 37>   H                      -6.557219            -5.068828            6.345814
| 38>   H                      -9.026821            -3.757067            6.800029
| 39>   H                      -9.068774            -5.485411            6.969378
| 40>   H                      -7.848887            -4.496328            7.950912
| 41>   C                    : -4.408711            -4.803330            9.541480
| 42>   O                    : -3.507719            -5.619174            8.803093
| 43>   H                    : -3.577156            -5.385569            7.868004
| 44>   H                    : -3.953242            -3.834839            9.823231
| 45>   H                    : -5.308709            -4.607049            9.067527
| 46>   H                    : -4.647134            -5.268615            10.475084
| 47> *
| 48>
| 49> #Run DFT-D3 single point of the particle with dimer basis set
| 50> $new_job
| 51> %base "10-17_DFT_B"
| 52> ! wB97X-D3 def2-TZVP TIGHTSCF CHELPG PMODEL
| 53>
| 54> %scf
| 55> MaxIter 1000
| 56> end
| 57>
| 58> * xyz 0 1
| 59>   C                    : -8.336969            -4.600054            6.961619
| 60>   O                    : -7.406997            -4.718792            5.976221
| 61>   H                    : -6.557219            -5.068828            6.345814
| 62>   H                    : -9.026821            -3.757067            6.800029
| 63>   H                    : -9.068774            -5.485411            6.969378
| 64>   H                    : -7.848887            -4.496328            7.950912
| 65>   C                      -4.408711            -4.803330            9.541480
| 66>   O                      -3.507719            -5.619174            8.803093
| 67>   H                      -3.577156            -5.385569            7.868004
| 68>   H                      -3.953242            -3.834839            9.823231
| 69>   H                      -5.308709            -4.607049            9.067527
| 70>   H                      -4.647134            -5.268615            10.475084
| 71> *
| 72>
| 73>                          ****END OF INPUT****
 Total Charge           Charge          ....    0
 Multiplicity           Mult            ....    1
 Number of Electrons    NEL             ....   36
Dispersion correction           -0.001240428
FINAL SINGLE POINT ENERGY      -231.464003454623
Dispersion correction           -0.000243979
FINAL SINGLE POINT ENERGY      -115.730600773154

CARTESIAN COORDINATES (ANGSTROEM)
---------------------------------
  C     -8.336969   -4.600054    6.961619
  O     -7.406997   -4.718792    5.976221
  H     -6.557219   -5.068828    6.345814
  H     -9.026821   -3.757067    6.800029
  H     -9.068774   -5.485411    6.969378
  H     -7.848887   -4.496328    7.950912
  C     -4.408711   -4.803330    9.541480
  O     -3.507719   -5.619174    8.803093
  H     -3.577156   -5.385569    7.868004
  H     -3.953242   -3.834839    9.823231
  H     -5.308709   -4.607049    9.067527
  H     -4.647134   -5.268615   10.475084

 Multiplicity           Mult            ....    1
 Number of Electrons    NEL             ....   18
 Basis Dimension        Dim             ....  172

ORBITAL ENERGIES
----------------

  NO   OCC          E(Eh)            E(eV)
   0   2.0000     -19.230999      -523.3021
   1   2.0000     -10.304974      -280.4126
   2   2.0000      -1.131672       -30.7944
   3   2.0000      -0.802371       -21.8336
   4   2.0000      -0.613219       -16.6865
   5   2.0000      -0.538071       -14.6417
   6   2.0000      -0.528600       -14.3839
   7   2.0000      -0.437748       -11.9117
   8   2.0000      -0.373449       -10.1621
   9   0.0000       0.078877         2.1463
  10   0.0000       0.116723         3.1762
  11   0.0000       0.151631         4.1261
  12   0.0000       0.174078         4.7369
  13   0.0000       0.188313         5.1243

MULLIKEN ATOMIC CHARGES
-----------------------
   0 C :   -0.000570
   1 O :   -0.000005
   2 H :   -0.000052
   3 H :    0.000032
   4 H :    0.000019
   5 H :    0.000479
   6 C :   -0.160059
   7 O :   -0.474243
   8 H :    0.314876
   9 H :    0.095504
  10 H :    0.108052
  11 H :    0.115968
Sum of atomic charges:    0.0000000

LOEWDIN ATOMIC CHARGES
----------------------
   0 C :   -0.000675
   1 O :   -0.000025
   2 H :   -0.000556
   3 H :   -0.000002
   4 H :   -0.000003
   5 H :   -0.001634
   6 C :   -0.371392
   7 O :   -0.082369
   8 H :    0.171623
   9 H :    0.098073
  10 H :    0.083123
  11 H :    0.103836

  Mayer bond orders larger than 0.1
B(  6-C ,  7-O ) :   1.0076 B(  6-C ,  9-H ) :   0.9798 B(  6-C , 10-H ) :   0.9756
B(  6-C , 11-H ) :   0.9773 B(  7-O ,  8-H ) :   0.8997

Dispersion correction           -0.000248112
FINAL SINGLE POINT ENERGY      -115.733659385598

DIPOLE MOMENT
-------------
                                X             Y             Z
Electronic contribution:      1.12310      -1.15324      -0.91067
Nuclear contribution   :     -1.55978       1.61877       0.61412
                        -----------------------------------------
Total Dipole Moment    :     -0.43668       0.46553      -0.29654
                        -----------------------------------------
Magnitude (a.u.)       :      0.70380
Magnitude (Debye)      :      1.78893

Rotational constants in cm-1:     4.514579     0.819604     0.793439
Rotational constants in MHz : 135343.668731 24571.103084 23786.707069

                             ****ORCA TERMINATED NORMALLY****
TOTAL RUN TIME: 0 days 0 hours 1 minutes 3 seconds 535 msec
