                         Program Version 4.1.2  - RELEASE  -
|  1> #Run DFT-D3 single point of the dimer
|  2> ! wB97X-D3 def2-TZVP TIGHTSCF CHELPG PMODEL PAL8
|  3>
|  4> %base "18-59_DFT_AB"
|  5>
|  6> %scf
|  7> MaxIter 1000
|  8> end
|  9>
| 10> * xyz 0 1
| 11>   C                      1.360282             -4.777872            -0.154041
| 12>   O                      0.112124             -4.454516            0.466890
| 13>   H                      0.255263             -3.645348            0.929075
| 14>   H                      1.579164             -4.006664            -0.829384
| 15>   H                      2.089112             -4.804114            0.602860
| 16>   H                      1.466500             -5.741228            -0.685839
| 17>   C                      2.541518             -8.816001            -2.541109
| 18>   O                      1.951085             -7.558709            -2.840185
| 19>   H                      2.604993             -6.849157            -2.959869
| 20>   H                      3.031251             -9.352187            -3.408719
| 21>   H                      3.253855             -8.789425            -1.676795
| 22>   H                      1.711851             -9.487703            -2.274370
| 23> *
| 24>
| 25> #Run DFT-D3 single point of the molecule with dimer basis set
| 26> $new_job
| 27> %base "18-59_DFT_A"
| 28> ! wB97X-D3 def2-TZVP TIGHTSCF CHELPG PMODEL
| 29>
| 30> %scf
| 31> MaxIter 1000
| 32> end
| 33>
| 34> * xyz 0 1
| 35>   C                      1.360282             -4.777872            -0.154041
| 36>   O                      0.112124             -4.454516            0.466890
| 37>   H                      0.255263             -3.645348            0.929075
| 38>   H                      1.579164             -4.006664            -0.829384
| 39>   H                      2.089112             -4.804114            0.602860
| 40>   H                      1.466500             -5.741228            -0.685839
| 41>   C                    : 2.541518             -8.816001            -2.541109
| 42>   O                    : 1.951085             -7.558709            -2.840185
| 43>   H                    : 2.604993             -6.849157            -2.959869
| 44>   H                    : 3.031251             -9.352187            -3.408719
| 45>   H                    : 3.253855             -8.789425            -1.676795
| 46>   H                    : 1.711851             -9.487703            -2.274370
| 47> *
| 48>
| 49> #Run DFT-D3 single point of the particle with dimer basis set
| 50> $new_job
| 51> %base "18-59_DFT_B"
| 52> ! wB97X-D3 def2-TZVP TIGHTSCF CHELPG PMODEL
| 53>
| 54> %scf
| 55> MaxIter 1000
| 56> end
| 57>
| 58> * xyz 0 1
| 59>   C                    : 1.360282             -4.777872            -0.154041
| 60>   O                    : 0.112124             -4.454516            0.466890
| 61>   H                    : 0.255263             -3.645348            0.929075
| 62>   H                    : 1.579164             -4.006664            -0.829384
| 63>   H                    : 2.089112             -4.804114            0.602860
| 64>   H                    : 1.466500             -5.741228            -0.685839
| 65>   C                      2.541518             -8.816001            -2.541109
| 66>   O                      1.951085             -7.558709            -2.840185
| 67>   H                      2.604993             -6.849157            -2.959869
| 68>   H                      3.031251             -9.352187            -3.408719
| 69>   H                      3.253855             -8.789425            -1.676795
| 70>   H                      1.711851             -9.487703            -2.274370
| 71> *
| 72>
| 73>                          ****END OF INPUT****
 Total Charge           Charge          ....    0
 Multiplicity           Mult            ....    1
 Number of Electrons    NEL             ....   36
Dispersion correction           -0.001232233
FINAL SINGLE POINT ENERGY      -231.463906332383
Dispersion correction           -0.000217386
FINAL SINGLE POINT ENERGY      -115.728434823966

CARTESIAN COORDINATES (ANGSTROEM)
---------------------------------
  C      1.360282   -4.777872   -0.154041
  O      0.112124   -4.454516    0.466890
  H      0.255263   -3.645348    0.929075
  H      1.579164   -4.006664   -0.829384
  H      2.089112   -4.804114    0.602860
  H      1.466500   -5.741228   -0.685839
  C      2.541518   -8.816001   -2.541109
  O      1.951085   -7.558709   -2.840185
  H      2.604993   -6.849157   -2.959869
  H      3.031251   -9.352187   -3.408719
  H      3.253855   -8.789425   -1.676795
  H      1.711851   -9.487703   -2.274370

 Multiplicity           Mult            ....    1
 Number of Electrons    NEL             ....   18
 Basis Dimension        Dim             ....  172

ORBITAL ENERGIES
----------------

  NO   OCC          E(Eh)            E(eV)
   0   2.0000     -19.234292      -523.3917
   1   2.0000     -10.321629      -280.8658
   2   2.0000      -1.130808       -30.7708
   3   2.0000      -0.793587       -21.5946
   4   2.0000      -0.609343       -16.5811
   5   2.0000      -0.535928       -14.5833
   6   2.0000      -0.522736       -14.2244
   7   2.0000      -0.428527       -11.6608
   8   2.0000      -0.375593       -10.2204
   9   0.0000       0.087498         2.3809
  10   0.0000       0.119930         3.2635
  11   0.0000       0.146502         3.9865
  12   0.0000       0.182058         4.9540
  13   0.0000       0.194316         5.2876

MULLIKEN ATOMIC CHARGES
-----------------------
   0 C :    0.004245
   1 O :   -0.000124
   2 H :   -0.000006
   3 H :   -0.000084
   4 H :   -0.000144
   5 H :   -0.013450
   6 C :   -0.163922
   7 O :   -0.476236
   8 H :    0.319731
   9 H :    0.101981
  10 H :    0.103856
  11 H :    0.124153
Sum of atomic charges:   -0.0000000

LOEWDIN ATOMIC CHARGES
----------------------
   0 C :   -0.002247
   1 O :   -0.000021
   2 H :   -0.000006
   3 H :   -0.000060
   4 H :   -0.000016
   5 H :   -0.007802
   6 C :   -0.393722
   7 O :   -0.079084
   8 H :    0.173754
   9 H :    0.099861
  10 H :    0.098210
  11 H :    0.111133

  Mayer bond orders larger than 0.1
B(  6-C ,  7-O ) :   0.9997 B(  6-C ,  9-H ) :   0.9650 B(  6-C , 10-H ) :   0.9725
B(  6-C , 11-H ) :   0.9757 B(  7-O ,  8-H ) :   0.8918

Dispersion correction           -0.000285919
FINAL SINGLE POINT ENERGY      -115.734802430317

DIPOLE MOMENT
-------------
                                X             Y             Z
Electronic contribution:     -0.82213       1.63931      -0.38985
Nuclear contribution   :      1.45924      -1.70271       0.43088
                        -----------------------------------------
Total Dipole Moment    :      0.63711      -0.06340       0.04103
                        -----------------------------------------
Magnitude (a.u.)       :      0.64157
Magnitude (Debye)      :      1.63074

Rotational constants in cm-1:     4.260892     0.805679     0.781904
Rotational constants in MHz : 127738.315412 24153.657896 23440.903273

                             ****ORCA TERMINATED NORMALLY****
TOTAL RUN TIME: 0 days 0 hours 0 minutes 51 seconds 771 msec
