                         Program Version 4.1.2  - RELEASE  -
|  1> #Run DFT-D3 single point of the dimer
|  2> ! wB97X-D3 def2-TZVP TIGHTSCF CHELPG PMODEL PAL8
|  3>
|  4> %base "6-196_DFT_AB"
|  5>
|  6> %scf
|  7> MaxIter 1000
|  8> end
|  9>
| 10> * xyz 0 1
| 11>   C                      7.712186             -6.551031            7.430713
| 12>   O                      6.356131             -6.462621            7.029702
| 13>   H                      6.229425             -6.355896            6.039159
| 14>   H                      7.888485             -6.577326            8.505830
| 15>   H                      8.158836             -7.446520            7.052474
| 16>   H                      8.295175             -5.696844            7.093777
| 17>   C                      5.586763             -5.731699            3.556566
| 18>   O                      6.439240             -6.855940            3.875305
| 19>   H                      6.470313             -7.460647            3.132939
| 20>   H                      4.635582             -6.021316            3.065610
| 21>   H                      5.302791             -4.989773            4.428867
| 22>   H                      6.078548             -5.071582            2.862421
| 23> *
| 24>
| 25> #Run DFT-D3 single point of the molecule with dimer basis set
| 26> $new_job
| 27> %base "6-196_DFT_A"
| 28> ! wB97X-D3 def2-TZVP TIGHTSCF CHELPG PMODEL
| 29>
| 30> %scf
| 31> MaxIter 1000
| 32> end
| 33>
| 34> * xyz 0 1
| 35>   C                      7.712186             -6.551031            7.430713
| 36>   O                      6.356131             -6.462621            7.029702
| 37>   H                      6.229425             -6.355896            6.039159
| 38>   H                      7.888485             -6.577326            8.505830
| 39>   H                      8.158836             -7.446520            7.052474
| 40>   H                      8.295175             -5.696844            7.093777
| 41>   C                    : 5.586763             -5.731699            3.556566
| 42>   O                    : 6.439240             -6.855940            3.875305
| 43>   H                    : 6.470313             -7.460647            3.132939
| 44>   H                    : 4.635582             -6.021316            3.065610
| 45>   H                    : 5.302791             -4.989773            4.428867
| 46>   H                    : 6.078548             -5.071582            2.862421
| 47> *
| 48>
| 49> #Run DFT-D3 single point of the particle with dimer basis set
| 50> $new_job
| 51> %base "6-196_DFT_B"
| 52> ! wB97X-D3 def2-TZVP TIGHTSCF CHELPG PMODEL
| 53>
| 54> %scf
| 55> MaxIter 1000
| 56> end
| 57>
| 58> * xyz 0 1
| 59>   C                    : 7.712186             -6.551031            7.430713
| 60>   O                    : 6.356131             -6.462621            7.029702
| 61>   H                    : 6.229425             -6.355896            6.039159
| 62>   H                    : 7.888485             -6.577326            8.505830
| 63>   H                    : 8.158836             -7.446520            7.052474
| 64>   H                    : 8.295175             -5.696844            7.093777
| 65>   C                      5.586763             -5.731699            3.556566
| 66>   O                      6.439240             -6.855940            3.875305
| 67>   H                      6.470313             -7.460647            3.132939
| 68>   H                      4.635582             -6.021316            3.065610
| 69>   H                      5.302791             -4.989773            4.428867
| 70>   H                      6.078548             -5.071582            2.862421
| 71> *
| 72>
| 73>                          ****END OF INPUT****
 Total Charge           Charge          ....    0
 Multiplicity           Mult            ....    1
 Number of Electrons    NEL             ....   36
Dispersion correction           -0.001702082
FINAL SINGLE POINT ENERGY      -231.463855855627
Dispersion correction           -0.000259722
FINAL SINGLE POINT ENERGY      -115.731453955934

CARTESIAN COORDINATES (ANGSTROEM)
---------------------------------
  C      7.712186   -6.551031    7.430713
  O      6.356131   -6.462621    7.029702
  H      6.229425   -6.355896    6.039159
  H      7.888485   -6.577326    8.505830
  H      8.158836   -7.446520    7.052474
  H      8.295175   -5.696844    7.093777
  C      5.586763   -5.731699    3.556566
  O      6.439240   -6.855940    3.875305
  H      6.470313   -7.460647    3.132939
  H      4.635582   -6.021316    3.065610
  H      5.302791   -4.989773    4.428867
  H      6.078548   -5.071582    2.862421

 Multiplicity           Mult            ....    1
 Number of Electrons    NEL             ....   18
 Basis Dimension        Dim             ....  172

ORBITAL ENERGIES
----------------

  NO   OCC          E(Eh)            E(eV)
   0   2.0000     -19.233689      -523.3753
   1   2.0000     -10.325956      -280.9836
   2   2.0000      -1.128115       -30.6976
   3   2.0000      -0.794077       -21.6079
   4   2.0000      -0.608463       -16.5571
   5   2.0000      -0.535057       -14.5597
   6   2.0000      -0.519415       -14.1340
   7   2.0000      -0.430136       -11.7046
   8   2.0000      -0.375607       -10.2208
   9   0.0000       0.099167         2.6985
  10   0.0000       0.123095         3.3496
  11   0.0000       0.139834         3.8051
  12   0.0000       0.182138         4.9562
  13   0.0000       0.204140         5.5549

MULLIKEN ATOMIC CHARGES
-----------------------
   0 C :   -0.000535
   1 O :   -0.000800
   2 H :    0.002199
   3 H :   -0.000135
   4 H :   -0.001135
   5 H :   -0.000329
   6 C :   -0.186638
   7 O :   -0.474171
   8 H :    0.314640
   9 H :    0.109736
  10 H :    0.122203
  11 H :    0.114964
Sum of atomic charges:   -0.0000000

LOEWDIN ATOMIC CHARGES
----------------------
   0 C :   -0.002209
   1 O :   -0.001805
   2 H :   -0.017620
   3 H :   -0.000030
   4 H :   -0.000471
   5 H :   -0.000126
   6 C :   -0.373573
   7 O :   -0.084766
   8 H :    0.166139
   9 H :    0.097234
  10 H :    0.127054
  11 H :    0.090172

  Mayer bond orders larger than 0.1
B(  6-C ,  7-O ) :   0.9873 B(  6-C ,  9-H ) :   0.9729 B(  6-C , 10-H ) :   0.9720
B(  6-C , 11-H ) :   0.9747 B(  7-O ,  8-H ) :   0.8951

Dispersion correction           -0.000283681
FINAL SINGLE POINT ENERGY      -115.727085585820

DIPOLE MOMENT
-------------
                                X             Y             Z
Electronic contribution:      1.14718      -1.50455       0.56420
Nuclear contribution   :     -1.47614       1.59292      -1.19850
                        -----------------------------------------
Total Dipole Moment    :     -0.32896       0.08836      -0.63430
                        -----------------------------------------
Magnitude (a.u.)       :      0.71997
Magnitude (Debye)      :      1.83003

Rotational constants in cm-1:     4.334745     0.782761     0.750699
Rotational constants in MHz : 129952.392606 23466.578391 22505.385274

                             ****ORCA TERMINATED NORMALLY****
TOTAL RUN TIME: 0 days 0 hours 1 minutes 8 seconds 108 msec
