                         Program Version 4.1.2  - RELEASE  -
|  1> #Run DFT-D3 single point of the dimer
|  2> ! wB97X-D3 def2-TZVP TIGHTSCF CHELPG PMODEL PAL8
|  3>
|  4> %base "13-91_DFT_AB"
|  5>
|  6> %scf
|  7> MaxIter 1000
|  8> end
|  9>
| 10> * xyz 0 1
| 11>   C                      -2.473489            2.754382             -3.587635
| 12>   O                      -2.443331            4.137999             -3.468418
| 13>   H                      -2.406738            4.647574             -4.288539
| 14>   H                      -1.822514            2.438176             -4.417710
| 15>   H                      -2.095098            2.370439             -2.644488
| 16>   H                      -3.458589            2.327411             -3.868728
| 17>   C                      -1.370065            6.208887             -6.938442
| 18>   O                      -2.392309            5.424116             -6.323053
| 19>   H                      -3.249040            5.754763             -6.675972
| 20>   H                      -0.452762            5.630749             -6.997572
| 21>   H                      -1.648471            6.736577             -7.876351
| 22>   H                      -1.043116            7.005122             -6.328241
| 23> *
| 24>
| 25> #Run DFT-D3 single point of the molecule with dimer basis set
| 26> $new_job
| 27> %base "13-91_DFT_A"
| 28> ! wB97X-D3 def2-TZVP TIGHTSCF CHELPG PMODEL
| 29>
| 30> %scf
| 31> MaxIter 1000
| 32> end
| 33>
| 34> * xyz 0 1
| 35>   C                      -2.473489            2.754382             -3.587635
| 36>   O                      -2.443331            4.137999             -3.468418
| 37>   H                      -2.406738            4.647574             -4.288539
| 38>   H                      -1.822514            2.438176             -4.417710
| 39>   H                      -2.095098            2.370439             -2.644488
| 40>   H                      -3.458589            2.327411             -3.868728
| 41>   C                    : -1.370065            6.208887             -6.938442
| 42>   O                    : -2.392309            5.424116             -6.323053
| 43>   H                    : -3.249040            5.754763             -6.675972
| 44>   H                    : -0.452762            5.630749             -6.997572
| 45>   H                    : -1.648471            6.736577             -7.876351
| 46>   H                    : -1.043116            7.005122             -6.328241
| 47> *
| 48>
| 49> #Run DFT-D3 single point of the particle with dimer basis set
| 50> $new_job
| 51> %base "13-91_DFT_B"
| 52> ! wB97X-D3 def2-TZVP TIGHTSCF CHELPG PMODEL
| 53>
| 54> %scf
| 55> MaxIter 1000
| 56> end
| 57>
| 58> * xyz 0 1
| 59>   C                    : -2.473489            2.754382             -3.587635
| 60>   O                    : -2.443331            4.137999             -3.468418
| 61>   H                    : -2.406738            4.647574             -4.288539
| 62>   H                    : -1.822514            2.438176             -4.417710
| 63>   H                    : -2.095098            2.370439             -2.644488
| 64>   H                    : -3.458589            2.327411             -3.868728
| 65>   C                      -1.370065            6.208887             -6.938442
| 66>   O                      -2.392309            5.424116             -6.323053
| 67>   H                      -3.249040            5.754763             -6.675972
| 68>   H                      -0.452762            5.630749             -6.997572
| 69>   H                      -1.648471            6.736577             -7.876351
| 70>   H                      -1.043116            7.005122             -6.328241
| 71> *
| 72>
| 73>                          ****END OF INPUT****
 Total Charge           Charge          ....    0
 Multiplicity           Mult            ....    1
 Number of Electrons    NEL             ....   36
Dispersion correction           -0.001485553
FINAL SINGLE POINT ENERGY      -231.471674773207
Dispersion correction           -0.000251151
FINAL SINGLE POINT ENERGY      -115.733641431606

CARTESIAN COORDINATES (ANGSTROEM)
---------------------------------
  C     -2.473489    2.754382   -3.587635
  O     -2.443331    4.137999   -3.468418
  H     -2.406738    4.647574   -4.288539
  H     -1.822514    2.438176   -4.417710
  H     -2.095098    2.370439   -2.644488
  H     -3.458589    2.327411   -3.868728
  C     -1.370065    6.208887   -6.938442
  O     -2.392309    5.424116   -6.323053
  H     -3.249040    5.754763   -6.675972
  H     -0.452762    5.630749   -6.997572
  H     -1.648471    6.736577   -7.876351
  H     -1.043116    7.005122   -6.328241

 Multiplicity           Mult            ....    1
 Number of Electrons    NEL             ....   18
 Basis Dimension        Dim             ....  172

ORBITAL ENERGIES
----------------

  NO   OCC          E(Eh)            E(eV)
   0   2.0000     -19.235710      -523.4303
   1   2.0000     -10.310457      -280.5618
   2   2.0000      -1.129359       -30.7314
   3   2.0000      -0.799312       -21.7504
   4   2.0000      -0.610417       -16.6103
   5   2.0000      -0.533595       -14.5199
   6   2.0000      -0.524837       -14.2816
   7   2.0000      -0.444115       -12.0850
   8   2.0000      -0.370693       -10.0871
   9   0.0000       0.098386         2.6772
  10   0.0000       0.119545         3.2530
  11   0.0000       0.150634         4.0990
  12   0.0000       0.186508         5.0751
  13   0.0000       0.198048         5.3892

MULLIKEN ATOMIC CHARGES
-----------------------
   0 C :    0.001206
   1 O :   -0.000772
   2 H :   -0.007727
   3 H :   -0.001442
   4 H :   -0.000124
   5 H :   -0.000194
   6 C :   -0.173348
   7 O :   -0.467233
   8 H :    0.316377
   9 H :    0.118739
  10 H :    0.105826
  11 H :    0.108692
Sum of atomic charges:    0.0000000

LOEWDIN ATOMIC CHARGES
----------------------
   0 C :   -0.001695
   1 O :   -0.002334
   2 H :   -0.026986
   3 H :   -0.000492
   4 H :   -0.000023
   5 H :   -0.000051
   6 C :   -0.380899
   7 O :   -0.068349
   8 H :    0.183851
   9 H :    0.106435
  10 H :    0.102504
  11 H :    0.088040

  Mayer bond orders larger than 0.1
B(  6-C ,  7-O ) :   1.0022 B(  6-C ,  9-H ) :   0.9810 B(  6-C , 10-H ) :   0.9726
B(  6-C , 11-H ) :   0.9754 B(  7-O ,  8-H ) :   0.8956

Dispersion correction           -0.000260032
FINAL SINGLE POINT ENERGY      -115.730141742584

DIPOLE MOMENT
-------------
                                X             Y             Z
Electronic contribution:     -1.27950      -1.15532       0.79025
Nuclear contribution   :      1.15944       1.70374      -1.25048
                        -----------------------------------------
Total Dipole Moment    :     -0.12007       0.54842      -0.46023
                        -----------------------------------------
Magnitude (a.u.)       :      0.72594
Magnitude (Debye)      :      1.84520

Rotational constants in cm-1:     4.403370     0.821498     0.773719
Rotational constants in MHz : 132009.698833 24627.897871 23195.502803

                             ****ORCA TERMINATED NORMALLY****
TOTAL RUN TIME: 0 days 0 hours 1 minutes 7 seconds 648 msec
