                         Program Version 4.1.2  - RELEASE  -
|  1> #Run DFT-D3 single point of the dimer
|  2> ! wB97X-D3 def2-TZVP TIGHTSCF CHELPG PMODEL PAL8
|  3>
|  4> %base "9-185_DFT_AB"
|  5>
|  6> %scf
|  7> MaxIter 1000
|  8> end
|  9>
| 10> * xyz 0 1
| 11>   C                      8.271127             3.178132             -6.755067
| 12>   O                      9.593530             3.281223             -7.167820
| 13>   H                      9.967296             4.074480             -6.738436
| 14>   H                      7.716275             4.038205             -7.136075
| 15>   H                      7.796655             2.343239             -7.270622
| 16>   H                      8.064296             3.159911             -5.722429
| 17>   C                      8.410281             1.692456             -10.279685
| 18>   O                      9.374186             2.498919             -9.706197
| 19>   H                      9.412940             2.443838             -8.716584
| 20>   H                      8.712724             0.631184             -10.130766
| 21>   H                      7.428347             1.839395             -9.898667
| 22>   H                      8.446008             1.818824             -11.285531
| 23> *
| 24>
| 25> #Run DFT-D3 single point of the molecule with dimer basis set
| 26> $new_job
| 27> %base "9-185_DFT_A"
| 28> ! wB97X-D3 def2-TZVP TIGHTSCF CHELPG PMODEL
| 29>
| 30> %scf
| 31> MaxIter 1000
| 32> end
| 33>
| 34> * xyz 0 1
| 35>   C                      8.271127             3.178132             -6.755067
| 36>   O                      9.593530             3.281223             -7.167820
| 37>   H                      9.967296             4.074480             -6.738436
| 38>   H                      7.716275             4.038205             -7.136075
| 39>   H                      7.796655             2.343239             -7.270622
| 40>   H                      8.064296             3.159911             -5.722429
| 41>   C                    : 8.410281             1.692456             -10.279685
| 42>   O                    : 9.374186             2.498919             -9.706197
| 43>   H                    : 9.412940             2.443838             -8.716584
| 44>   H                    : 8.712724             0.631184             -10.130766
| 45>   H                    : 7.428347             1.839395             -9.898667
| 46>   H                    : 8.446008             1.818824             -11.285531
| 47> *
| 48>
| 49> #Run DFT-D3 single point of the particle with dimer basis set
| 50> $new_job
| 51> %base "9-185_DFT_B"
| 52> ! wB97X-D3 def2-TZVP TIGHTSCF CHELPG PMODEL
| 53>
| 54> %scf
| 55> MaxIter 1000
| 56> end
| 57>
| 58> * xyz 0 1
| 59>   C                    : 8.271127             3.178132             -6.755067
| 60>   O                    : 9.593530             3.281223             -7.167820
| 61>   H                    : 9.967296             4.074480             -6.738436
| 62>   H                    : 7.716275             4.038205             -7.136075
| 63>   H                    : 7.796655             2.343239             -7.270622
| 64>   H                    : 8.064296             3.159911             -5.722429
| 65>   C                      8.410281             1.692456             -10.279685
| 66>   O                      9.374186             2.498919             -9.706197
| 67>   H                      9.412940             2.443838             -8.716584
| 68>   H                      8.712724             0.631184             -10.130766
| 69>   H                      7.428347             1.839395             -9.898667
| 70>   H                      8.446008             1.818824             -11.285531
| 71> *
| 72>
| 73>                          ****END OF INPUT****
 Total Charge           Charge          ....    0
 Multiplicity           Mult            ....    1
 Number of Electrons    NEL             ....   36
Dispersion correction           -0.001979147
FINAL SINGLE POINT ENERGY      -231.465873537755
Dispersion correction           -0.000225937
FINAL SINGLE POINT ENERGY      -115.733128534955

CARTESIAN COORDINATES (ANGSTROEM)
---------------------------------
  C      8.271127    3.178132   -6.755067
  O      9.593530    3.281223   -7.167820
  H      9.967296    4.074480   -6.738436
  H      7.716275    4.038205   -7.136075
  H      7.796655    2.343239   -7.270622
  H      8.064296    3.159911   -5.722429
  C      8.410281    1.692456  -10.279685
  O      9.374186    2.498919   -9.706197
  H      9.412940    2.443838   -8.716584
  H      8.712724    0.631184  -10.130766
  H      7.428347    1.839395   -9.898667
  H      8.446008    1.818824  -11.285531

 Multiplicity           Mult            ....    1
 Number of Electrons    NEL             ....   18
 Basis Dimension        Dim             ....  172

ORBITAL ENERGIES
----------------

  NO   OCC          E(Eh)            E(eV)
   0   2.0000     -19.229322      -523.2565
   1   2.0000     -10.300014      -280.2776
   2   2.0000      -1.136517       -30.9262
   3   2.0000      -0.802083       -21.8258
   4   2.0000      -0.613936       -16.7060
   5   2.0000      -0.548101       -14.9146
   6   2.0000      -0.538504       -14.6535
   7   2.0000      -0.427198       -11.6246
   8   2.0000      -0.368537       -10.0284
   9   0.0000       0.071343         1.9413
  10   0.0000       0.138262         3.7623
  11   0.0000       0.149126         4.0579
  12   0.0000       0.175928         4.7873
  13   0.0000       0.189349         5.1524

MULLIKEN ATOMIC CHARGES
-----------------------
   0 C :   -0.013067
   1 O :   -0.000553
   2 H :   -0.000198
   3 H :    0.001482
   4 H :    0.000595
   5 H :   -0.000854
   6 C :   -0.153168
   7 O :   -0.472481
   8 H :    0.317224
   9 H :    0.092095
  10 H :    0.101180
  11 H :    0.127745
Sum of atomic charges:    0.0000000

LOEWDIN ATOMIC CHARGES
----------------------
   0 C :   -0.016092
   1 O :   -0.029664
   2 H :   -0.001188
   3 H :   -0.000793
   4 H :   -0.003904
   5 H :   -0.000322
   6 C :   -0.392501
   7 O :   -0.044047
   8 H :    0.207839
   9 H :    0.099608
  10 H :    0.089159
  11 H :    0.091906

  Mayer bond orders larger than 0.1
B(  6-C ,  7-O ) :   1.0024 B(  6-C ,  9-H ) :   0.9923 B(  6-C , 10-H ) :   0.9706
B(  6-C , 11-H ) :   0.9735 B(  7-O ,  8-H ) :   0.8921

Dispersion correction           -0.000231016
FINAL SINGLE POINT ENERGY      -115.729769022942

DIPOLE MOMENT
-------------
                                X             Y             Z
Electronic contribution:      1.15294       1.19733       0.54487
Nuclear contribution   :     -1.50483      -1.53514      -0.17922
                        -----------------------------------------
Total Dipole Moment    :     -0.35189      -0.33782       0.36565
                        -----------------------------------------
Magnitude (a.u.)       :      0.60963
Magnitude (Debye)      :      1.54956

Rotational constants in cm-1:     4.491538     0.859799     0.835211
Rotational constants in MHz : 134652.919436 25776.131594 25038.999682

                             ****ORCA TERMINATED NORMALLY****
TOTAL RUN TIME: 0 days 0 hours 0 minutes 49 seconds 34 msec
