                         Program Version 4.1.2  - RELEASE  -
|  1> #Run DFT-D3 single point of the dimer
|  2> ! wB97X-D3 def2-TZVP TIGHTSCF CHELPG PMODEL PAL8
|  3>
|  4> %base "14-164_DFT_AB"
|  5>
|  6> %scf
|  7> MaxIter 1000
|  8> end
|  9>
| 10> * xyz 0 1
| 11>   C                      -9.205169            6.910443             -3.179025
| 12>   O                      -8.021357            7.648472             -2.983924
| 13>   H                      -8.204361            8.311799             -2.278597
| 14>   H                      -9.929243            7.448107             -3.819191
| 15>   H                      -9.029607            5.992954             -3.755281
| 16>   H                      -9.681577            6.510457             -2.310331
| 17>   C                      -9.277609            10.868019            -1.398150
| 18>   O                      -8.154340            10.046365            -1.469063
| 19>   H                      -7.347590            10.604920            -1.316644
| 20>   H                      -9.766272            10.984806            -2.377752
| 21>   H                      -9.969901            10.522465            -0.732138
| 22>   H                      -9.056871            11.852920            -1.020182
| 23> *
| 24>
| 25> #Run DFT-D3 single point of the molecule with dimer basis set
| 26> $new_job
| 27> %base "14-164_DFT_A"
| 28> ! wB97X-D3 def2-TZVP TIGHTSCF CHELPG PMODEL
| 29>
| 30> %scf
| 31> MaxIter 1000
| 32> end
| 33>
| 34> * xyz 0 1
| 35>   C                      -9.205169            6.910443             -3.179025
| 36>   O                      -8.021357            7.648472             -2.983924
| 37>   H                      -8.204361            8.311799             -2.278597
| 38>   H                      -9.929243            7.448107             -3.819191
| 39>   H                      -9.029607            5.992954             -3.755281
| 40>   H                      -9.681577            6.510457             -2.310331
| 41>   C                    : -9.277609            10.868019            -1.398150
| 42>   O                    : -8.154340            10.046365            -1.469063
| 43>   H                    : -7.347590            10.604920            -1.316644
| 44>   H                    : -9.766272            10.984806            -2.377752
| 45>   H                    : -9.969901            10.522465            -0.732138
| 46>   H                    : -9.056871            11.852920            -1.020182
| 47> *
| 48>
| 49> #Run DFT-D3 single point of the particle with dimer basis set
| 50> $new_job
| 51> %base "14-164_DFT_B"
| 52> ! wB97X-D3 def2-TZVP TIGHTSCF CHELPG PMODEL
| 53>
| 54> %scf
| 55> MaxIter 1000
| 56> end
| 57>
| 58> * xyz 0 1
| 59>   C                    : -9.205169            6.910443             -3.179025
| 60>   O                    : -8.021357            7.648472             -2.983924
| 61>   H                    : -8.204361            8.311799             -2.278597
| 62>   H                    : -9.929243            7.448107             -3.819191
| 63>   H                    : -9.029607            5.992954             -3.755281
| 64>   H                    : -9.681577            6.510457             -2.310331
| 65>   C                      -9.277609            10.868019            -1.398150
| 66>   O                      -8.154340            10.046365            -1.469063
| 67>   H                      -7.347590            10.604920            -1.316644
| 68>   H                      -9.766272            10.984806            -2.377752
| 69>   H                      -9.969901            10.522465            -0.732138
| 70>   H                      -9.056871            11.852920            -1.020182
| 71> *
| 72>
| 73>                          ****END OF INPUT****
 Total Charge           Charge          ....    0
 Multiplicity           Mult            ....    1
 Number of Electrons    NEL             ....   36
Dispersion correction           -0.001648079
FINAL SINGLE POINT ENERGY      -231.470844246550
Dispersion correction           -0.000258001
FINAL SINGLE POINT ENERGY      -115.733247167041

CARTESIAN COORDINATES (ANGSTROEM)
---------------------------------
  C     -9.205169    6.910443   -3.179025
  O     -8.021357    7.648472   -2.983924
  H     -8.204361    8.311799   -2.278597
  H     -9.929243    7.448107   -3.819191
  H     -9.029607    5.992954   -3.755281
  H     -9.681577    6.510457   -2.310331
  C     -9.277609   10.868019   -1.398150
  O     -8.154340   10.046365   -1.469063
  H     -7.347590   10.604920   -1.316644
  H     -9.766272   10.984806   -2.377752
  H     -9.969901   10.522465   -0.732138
  H     -9.056871   11.852920   -1.020182

 Multiplicity           Mult            ....    1
 Number of Electrons    NEL             ....   18
 Basis Dimension        Dim             ....  172

ORBITAL ENERGIES
----------------

  NO   OCC          E(Eh)            E(eV)
   0   2.0000     -19.232725      -523.3490
   1   2.0000     -10.301293      -280.3124
   2   2.0000      -1.136156       -30.9164
   3   2.0000      -0.800211       -21.7749
   4   2.0000      -0.614584       -16.7237
   5   2.0000      -0.547219       -14.8906
   6   2.0000      -0.530713       -14.4414
   7   2.0000      -0.430516       -11.7149
   8   2.0000      -0.373334       -10.1589
   9   0.0000       0.096120         2.6155
  10   0.0000       0.118100         3.2137
  11   0.0000       0.153906         4.1880
  12   0.0000       0.189775         5.1641
  13   0.0000       0.200493         5.4557

MULLIKEN ATOMIC CHARGES
-----------------------
   0 C :    0.000988
   1 O :    0.000033
   2 H :   -0.011178
   3 H :   -0.000151
   4 H :   -0.000047
   5 H :   -0.000250
   6 C :   -0.158251
   7 O :   -0.468853
   8 H :    0.319807
   9 H :    0.101261
  10 H :    0.118209
  11 H :    0.098432
Sum of atomic charges:   -0.0000000

LOEWDIN ATOMIC CHARGES
----------------------
   0 C :   -0.001084
   1 O :   -0.006820
   2 H :   -0.044815
   3 H :   -0.000046
   4 H :   -0.000022
   5 H :   -0.000040
   6 C :   -0.391107
   7 O :   -0.031186
   8 H :    0.191900
   9 H :    0.101172
  10 H :    0.085774
  11 H :    0.096274

  Mayer bond orders larger than 0.1
B(  6-C ,  7-O ) :   1.0035 B(  6-C ,  9-H ) :   0.9799 B(  6-C , 10-H ) :   0.9781
B(  6-C , 11-H ) :   0.9798 B(  7-O ,  8-H ) :   0.8922

Dispersion correction           -0.000238556
FINAL SINGLE POINT ENERGY      -115.730043765831

DIPOLE MOMENT
-------------
                                X             Y             Z
Electronic contribution:      1.37793      -1.23957      -0.08667
Nuclear contribution   :     -1.30153       1.93763       0.25192
                        -----------------------------------------
Total Dipole Moment    :      0.07639       0.69806       0.16526
                        -----------------------------------------
Magnitude (a.u.)       :      0.72141
Magnitude (Debye)      :      1.83368

Rotational constants in cm-1:     4.487379     0.848449     0.818287
Rotational constants in MHz : 134528.228758 25435.847234 24531.641273

                             ****ORCA TERMINATED NORMALLY****
TOTAL RUN TIME: 0 days 0 hours 1 minutes 11 seconds 722 msec
