                         Program Version 4.1.2  - RELEASE  -
|  1> #Run DFT-D3 single point of the dimer
|  2> ! wB97X-D3 def2-TZVP TIGHTSCF CHELPG PMODEL PAL8
|  3>
|  4> %base "17-221_DFT_AB"
|  5>
|  6> %scf
|  7> MaxIter 1000
|  8> end
|  9>
| 10> * xyz 0 1
| 11>   C                      -4.738378            -10.797545           5.496233
| 12>   O                      -4.471559            -9.966944            6.615812
| 13>   H                      -3.861175            -9.256348            6.320309
| 14>   H                      -3.784103            -11.287532           5.147418
| 15>   H                      -5.499942            -11.588051           5.654332
| 16>   H                      -5.059987            -10.267916           4.596856
| 17>   C                      -4.783305            -7.529827            9.477212
| 18>   O                      -5.717661            -8.009565            8.566774
| 19>   H                      -5.219529            -8.587671            7.966189
| 20>   H                      -3.811279            -7.367392            9.016651
| 21>   H                      -5.085861            -6.714084            10.145264
| 22>   H                      -4.595531            -8.377258            10.172359
| 23> *
| 24>
| 25> #Run DFT-D3 single point of the molecule with dimer basis set
| 26> $new_job
| 27> %base "17-221_DFT_A"
| 28> ! wB97X-D3 def2-TZVP TIGHTSCF CHELPG PMODEL
| 29>
| 30> %scf
| 31> MaxIter 1000
| 32> end
| 33>
| 34> * xyz 0 1
| 35>   C                      -4.738378            -10.797545           5.496233
| 36>   O                      -4.471559            -9.966944            6.615812
| 37>   H                      -3.861175            -9.256348            6.320309
| 38>   H                      -3.784103            -11.287532           5.147418
| 39>   H                      -5.499942            -11.588051           5.654332
| 40>   H                      -5.059987            -10.267916           4.596856
| 41>   C                    : -4.783305            -7.529827            9.477212
| 42>   O                    : -5.717661            -8.009565            8.566774
| 43>   H                    : -5.219529            -8.587671            7.966189
| 44>   H                    : -3.811279            -7.367392            9.016651
| 45>   H                    : -5.085861            -6.714084            10.145264
| 46>   H                    : -4.595531            -8.377258            10.172359
| 47> *
| 48>
| 49> #Run DFT-D3 single point of the particle with dimer basis set
| 50> $new_job
| 51> %base "17-221_DFT_B"
| 52> ! wB97X-D3 def2-TZVP TIGHTSCF CHELPG PMODEL
| 53>
| 54> %scf
| 55> MaxIter 1000
| 56> end
| 57>
| 58> * xyz 0 1
| 59>   C                    : -4.738378            -10.797545           5.496233
| 60>   O                    : -4.471559            -9.966944            6.615812
| 61>   H                    : -3.861175            -9.256348            6.320309
| 62>   H                    : -3.784103            -11.287532           5.147418
| 63>   H                    : -5.499942            -11.588051           5.654332
| 64>   H                    : -5.059987            -10.267916           4.596856
| 65>   C                      -4.783305            -7.529827            9.477212
| 66>   O                      -5.717661            -8.009565            8.566774
| 67>   H                      -5.219529            -8.587671            7.966189
| 68>   H                      -3.811279            -7.367392            9.016651
| 69>   H                      -5.085861            -6.714084            10.145264
| 70>   H                      -4.595531            -8.377258            10.172359
| 71> *
| 72>
| 73>                          ****END OF INPUT****
 Total Charge           Charge          ....    0
 Multiplicity           Mult            ....    1
 Number of Electrons    NEL             ....   36
Dispersion correction           -0.001438690
FINAL SINGLE POINT ENERGY      -231.467966670336
Dispersion correction           -0.000255804
FINAL SINGLE POINT ENERGY      -115.732855531162

CARTESIAN COORDINATES (ANGSTROEM)
---------------------------------
  C     -4.738378  -10.797545    5.496233
  O     -4.471559   -9.966944    6.615812
  H     -3.861175   -9.256348    6.320309
  H     -3.784103  -11.287532    5.147418
  H     -5.499942  -11.588051    5.654332
  H     -5.059987  -10.267916    4.596856
  C     -4.783305   -7.529827    9.477212
  O     -5.717661   -8.009565    8.566774
  H     -5.219529   -8.587671    7.966189
  H     -3.811279   -7.367392    9.016651
  H     -5.085861   -6.714084   10.145264
  H     -4.595531   -8.377258   10.172359

 Multiplicity           Mult            ....    1
 Number of Electrons    NEL             ....   18
 Basis Dimension        Dim             ....  172

ORBITAL ENERGIES
----------------

  NO   OCC          E(Eh)            E(eV)
   0   2.0000     -19.231565      -523.3175
   1   2.0000     -10.312904      -280.6284
   2   2.0000      -1.144422       -31.1413
   3   2.0000      -0.791487       -21.5375
   4   2.0000      -0.616202       -16.7677
   5   2.0000      -0.540396       -14.7049
   6   2.0000      -0.534508       -14.5447
   7   2.0000      -0.437527       -11.9057
   8   2.0000      -0.364422        -9.9164
   9   0.0000       0.070089         1.9072
  10   0.0000       0.119976         3.2647
  11   0.0000       0.153447         4.1755
  12   0.0000       0.171927         4.6784
  13   0.0000       0.197493         5.3741

MULLIKEN ATOMIC CHARGES
-----------------------
   0 C :   -0.000332
   1 O :   -0.001639
   2 H :   -0.001437
   3 H :   -0.000000
   4 H :   -0.000011
   5 H :   -0.000059
   6 C :   -0.178674
   7 O :   -0.460176
   8 H :    0.315525
   9 H :    0.103688
  10 H :    0.126029
  11 H :    0.097085
Sum of atomic charges:   -0.0000000

LOEWDIN ATOMIC CHARGES
----------------------
   0 C :   -0.000999
   1 O :   -0.014133
   2 H :   -0.002926
   3 H :   -0.000025
   4 H :   -0.000033
   5 H :   -0.000029
   6 C :   -0.410623
   7 O :   -0.058874
   8 H :    0.187961
   9 H :    0.093224
  10 H :    0.109034
  11 H :    0.097424

  Mayer bond orders larger than 0.1
B(  6-C ,  7-O ) :   0.9872 B(  6-C ,  9-H ) :   0.9791 B(  6-C , 10-H ) :   0.9679
B(  6-C , 11-H ) :   0.9866 B(  7-O ,  8-H ) :   0.9041

Dispersion correction           -0.000216746
FINAL SINGLE POINT ENERGY      -115.729575418400

DIPOLE MOMENT
-------------
                                X             Y             Z
Electronic contribution:     -1.42091      -0.31219      -1.22587
Nuclear contribution   :      2.08895       0.13547       1.20055
                        -----------------------------------------
Total Dipole Moment    :      0.66804      -0.17672      -0.02532
                        -----------------------------------------
Magnitude (a.u.)       :      0.69148
Magnitude (Debye)      :      1.75761

Rotational constants in cm-1:     4.293393     0.858671     0.816981
Rotational constants in MHz : 128712.673619 25742.302218 24492.469842

                             ****ORCA TERMINATED NORMALLY****
TOTAL RUN TIME: 0 days 0 hours 1 minutes 4 seconds 504 msec
