                         Program Version 4.1.2  - RELEASE  -
|  1> #Run DFT-D3 single point of the dimer
|  2> ! wB97X-D3 def2-TZVP TIGHTSCF CHELPG PMODEL PAL8
|  3>
|  4> %base "10-203_DFT_AB"
|  5>
|  6> %scf
|  7> MaxIter 1000
|  8> end
|  9>
| 10> * xyz 0 1
| 11>   C                      -3.872528            2.001226             10.864595
| 12>   O                      -3.736998            1.696973             9.499086
| 13>   H                      -3.554987            0.750151             9.587223
| 14>   H                      -4.390555            1.165372             11.388547
| 15>   H                      -3.011502            2.207887             11.433390
| 16>   H                      -4.542137            2.906519             11.106688
| 17>   C                      -2.808617            -1.737059            8.696222
| 18>   O                      -3.519960            -1.248605            9.838495
| 19>   H                      -3.025267            -1.574409            10.619669
| 20>   H                      -2.767888            -2.814282            8.543875
| 21>   H                      -3.162831            -1.196957            7.815363
| 22>   H                      -1.744119            -1.591351            8.727154
| 23> *
| 24>
| 25> #Run DFT-D3 single point of the molecule with dimer basis set
| 26> $new_job
| 27> %base "10-203_DFT_A"
| 28> ! wB97X-D3 def2-TZVP TIGHTSCF CHELPG PMODEL
| 29>
| 30> %scf
| 31> MaxIter 1000
| 32> end
| 33>
| 34> * xyz 0 1
| 35>   C                      -3.872528            2.001226             10.864595
| 36>   O                      -3.736998            1.696973             9.499086
| 37>   H                      -3.554987            0.750151             9.587223
| 38>   H                      -4.390555            1.165372             11.388547
| 39>   H                      -3.011502            2.207887             11.433390
| 40>   H                      -4.542137            2.906519             11.106688
| 41>   C                    : -2.808617            -1.737059            8.696222
| 42>   O                    : -3.519960            -1.248605            9.838495
| 43>   H                    : -3.025267            -1.574409            10.619669
| 44>   H                    : -2.767888            -2.814282            8.543875
| 45>   H                    : -3.162831            -1.196957            7.815363
| 46>   H                    : -1.744119            -1.591351            8.727154
| 47> *
| 48>
| 49> #Run DFT-D3 single point of the particle with dimer basis set
| 50> $new_job
| 51> %base "10-203_DFT_B"
| 52> ! wB97X-D3 def2-TZVP TIGHTSCF CHELPG PMODEL
| 53>
| 54> %scf
| 55> MaxIter 1000
| 56> end
| 57>
| 58> * xyz 0 1
| 59>   C                    : -3.872528            2.001226             10.864595
| 60>   O                    : -3.736998            1.696973             9.499086
| 61>   H                    : -3.554987            0.750151             9.587223
| 62>   H                    : -4.390555            1.165372             11.388547
| 63>   H                    : -3.011502            2.207887             11.433390
| 64>   H                    : -4.542137            2.906519             11.106688
| 65>   C                      -2.808617            -1.737059            8.696222
| 66>   O                      -3.519960            -1.248605            9.838495
| 67>   H                      -3.025267            -1.574409            10.619669
| 68>   H                      -2.767888            -2.814282            8.543875
| 69>   H                      -3.162831            -1.196957            7.815363
| 70>   H                      -1.744119            -1.591351            8.727154
| 71> *
| 72>
| 73>                          ****END OF INPUT****
 Total Charge           Charge          ....    0
 Multiplicity           Mult            ....    1
 Number of Electrons    NEL             ....   36
Dispersion correction           -0.001877403
FINAL SINGLE POINT ENERGY      -231.466500038224
Dispersion correction           -0.000239851
FINAL SINGLE POINT ENERGY      -115.726514679240

CARTESIAN COORDINATES (ANGSTROEM)
---------------------------------
  C     -3.872528    2.001226   10.864595
  O     -3.736998    1.696973    9.499086
  H     -3.554987    0.750151    9.587223
  H     -4.390555    1.165372   11.388547
  H     -3.011502    2.207887   11.433390
  H     -4.542137    2.906519   11.106688
  C     -2.808617   -1.737059    8.696222
  O     -3.519960   -1.248605    9.838495
  H     -3.025267   -1.574409   10.619669
  H     -2.767888   -2.814282    8.543875
  H     -3.162831   -1.196957    7.815363
  H     -1.744119   -1.591351    8.727154

 Multiplicity           Mult            ....    1
 Number of Electrons    NEL             ....   18
 Basis Dimension        Dim             ....  172

ORBITAL ENERGIES
----------------

  NO   OCC          E(Eh)            E(eV)
   0   2.0000     -19.238064      -523.4943
   1   2.0000     -10.311862      -280.6000
   2   2.0000      -1.130774       -30.7699
   3   2.0000      -0.799496       -21.7554
   4   2.0000      -0.616968       -16.7886
   5   2.0000      -0.530679       -14.4405
   6   2.0000      -0.519620       -14.1396
   7   2.0000      -0.447022       -12.1641
   8   2.0000      -0.373787       -10.1713
   9   0.0000       0.095806         2.6070
  10   0.0000       0.124715         3.3937
  11   0.0000       0.147624         4.0170
  12   0.0000       0.181609         4.9418
  13   0.0000       0.205585         5.5942

MULLIKEN ATOMIC CHARGES
-----------------------
   0 C :   -0.002437
   1 O :   -0.002237
   2 H :    0.003185
   3 H :   -0.002756
   4 H :    0.000145
   5 H :   -0.000289
   6 C :   -0.185403
   7 O :   -0.466958
   8 H :    0.315030
   9 H :    0.107556
  10 H :    0.127395
  11 H :    0.106767
Sum of atomic charges:   -0.0000000

LOEWDIN ATOMIC CHARGES
----------------------
   0 C :   -0.006122
   1 O :   -0.003523
   2 H :   -0.033609
   3 H :   -0.002377
   4 H :   -0.000152
   5 H :   -0.000081
   6 C :   -0.380301
   7 O :   -0.055393
   8 H :    0.181770
   9 H :    0.095828
  10 H :    0.112172
  11 H :    0.091788

  Mayer bond orders larger than 0.1
B(  6-C ,  7-O ) :   0.9941 B(  6-C ,  9-H ) :   0.9635 B(  6-C , 10-H ) :   0.9802
B(  6-C , 11-H ) :   0.9748 B(  7-O ,  8-H ) :   0.8961

Dispersion correction           -0.000257579
FINAL SINGLE POINT ENERGY      -115.731040664967

DIPOLE MOMENT
-------------
                                X             Y             Z
Electronic contribution:     -1.14403       0.69899       1.40568
Nuclear contribution   :      1.76562      -1.09914      -1.37686
                        -----------------------------------------
Total Dipole Moment    :      0.62159      -0.40016       0.02882
                        -----------------------------------------
Magnitude (a.u.)       :      0.73982
Magnitude (Debye)      :      1.88047

Rotational constants in cm-1:     4.426037     0.814506     0.771354
Rotational constants in MHz : 132689.256242 24418.277927 23124.623404

                             ****ORCA TERMINATED NORMALLY****
TOTAL RUN TIME: 0 days 0 hours 1 minutes 10 seconds 339 msec
