                         Program Version 4.1.2  - RELEASE  -
|  1> #Run DFT-D3 single point of the dimer
|  2> ! wB97X-D3 def2-TZVP TIGHTSCF CHELPG PMODEL PAL8
|  3>
|  4> %base "18-155_DFT_AB"
|  5>
|  6> %scf
|  7> MaxIter 1000
|  8> end
|  9>
| 10> * xyz 0 1
| 11>   C                      -2.485529            9.493496             4.658213
| 12>   O                      -1.428511            10.376600            4.866788
| 13>   H                      -0.688804            10.184425            4.315683
| 14>   H                      -3.403345            9.887249             5.169143
| 15>   H                      -2.769642            9.542290             3.660681
| 16>   H                      -2.396257            8.442123             4.870287
| 17>   C                      0.928907             7.448573             3.487532
| 18>   O                      0.765895             8.885625             3.348894
| 19>   H                      1.694206             9.228665             3.410439
| 20>   H                      1.616737             7.010766             2.734022
| 21>   H                      1.367731             7.210339             4.484350
| 22>   H                      -0.005541            6.954212             3.480034
| 23> *
| 24>
| 25> #Run DFT-D3 single point of the molecule with dimer basis set
| 26> $new_job
| 27> %base "18-155_DFT_A"
| 28> ! wB97X-D3 def2-TZVP TIGHTSCF CHELPG PMODEL
| 29>
| 30> %scf
| 31> MaxIter 1000
| 32> end
| 33>
| 34> * xyz 0 1
| 35>   C                      -2.485529            9.493496             4.658213
| 36>   O                      -1.428511            10.376600            4.866788
| 37>   H                      -0.688804            10.184425            4.315683
| 38>   H                      -3.403345            9.887249             5.169143
| 39>   H                      -2.769642            9.542290             3.660681
| 40>   H                      -2.396257            8.442123             4.870287
| 41>   C                    : 0.928907             7.448573             3.487532
| 42>   O                    : 0.765895             8.885625             3.348894
| 43>   H                    : 1.694206             9.228665             3.410439
| 44>   H                    : 1.616737             7.010766             2.734022
| 45>   H                    : 1.367731             7.210339             4.484350
| 46>   H                    : -0.005541            6.954212             3.480034
| 47> *
| 48>
| 49> #Run DFT-D3 single point of the particle with dimer basis set
| 50> $new_job
| 51> %base "18-155_DFT_B"
| 52> ! wB97X-D3 def2-TZVP TIGHTSCF CHELPG PMODEL
| 53>
| 54> %scf
| 55> MaxIter 1000
| 56> end
| 57>
| 58> * xyz 0 1
| 59>   C                    : -2.485529            9.493496             4.658213
| 60>   O                    : -1.428511            10.376600            4.866788
| 61>   H                    : -0.688804            10.184425            4.315683
| 62>   H                    : -3.403345            9.887249             5.169143
| 63>   H                    : -2.769642            9.542290             3.660681
| 64>   H                    : -2.396257            8.442123             4.870287
| 65>   C                      0.928907             7.448573             3.487532
| 66>   O                      0.765895             8.885625             3.348894
| 67>   H                      1.694206             9.228665             3.410439
| 68>   H                      1.616737             7.010766             2.734022
| 69>   H                      1.367731             7.210339             4.484350
| 70>   H                      -0.005541            6.954212             3.480034
| 71> *
| 72>
| 73>                          ****END OF INPUT****
 Total Charge           Charge          ....    0
 Multiplicity           Mult            ....    1
 Number of Electrons    NEL             ....   36
Dispersion correction           -0.001826031
FINAL SINGLE POINT ENERGY      -231.470124802814
Dispersion correction           -0.000247008
FINAL SINGLE POINT ENERGY      -115.729554755522

CARTESIAN COORDINATES (ANGSTROEM)
---------------------------------
  C     -2.485529    9.493496    4.658213
  O     -1.428511   10.376600    4.866788
  H     -0.688804   10.184425    4.315683
  H     -3.403345    9.887249    5.169143
  H     -2.769642    9.542290    3.660681
  H     -2.396257    8.442123    4.870287
  C      0.928907    7.448573    3.487532
  O      0.765895    8.885625    3.348894
  H      1.694206    9.228665    3.410439
  H      1.616737    7.010766    2.734022
  H      1.367731    7.210339    4.484350
  H     -0.005541    6.954212    3.480034

 Multiplicity           Mult            ....    1
 Number of Electrons    NEL             ....   18
 Basis Dimension        Dim             ....  172

ORBITAL ENERGIES
----------------

  NO   OCC          E(Eh)            E(eV)
   0   2.0000     -19.235988      -523.4378
   1   2.0000     -10.316601      -280.7290
   2   2.0000      -1.122324       -30.5400
   3   2.0000      -0.794610       -21.6224
   4   2.0000      -0.599764       -16.3204
   5   2.0000      -0.534223       -14.5369
   6   2.0000      -0.525759       -14.3066
   7   2.0000      -0.443256       -12.0616
   8   2.0000      -0.373907       -10.1745
   9   0.0000       0.095271         2.5925
  10   0.0000       0.121673         3.3109
  11   0.0000       0.147972         4.0265
  12   0.0000       0.188258         5.1228
  13   0.0000       0.195631         5.3234

MULLIKEN ATOMIC CHARGES
-----------------------
   0 C :    0.001922
   1 O :   -0.001031
   2 H :   -0.008461
   3 H :   -0.000084
   4 H :   -0.000862
   5 H :   -0.000743
   6 C :   -0.185579
   7 O :   -0.464116
   8 H :    0.314497
   9 H :    0.110295
  10 H :    0.103578
  11 H :    0.130582
Sum of atomic charges:   -0.0000000

LOEWDIN ATOMIC CHARGES
----------------------
   0 C :   -0.002823
   1 O :   -0.003525
   2 H :   -0.026998
   3 H :   -0.000034
   4 H :   -0.000229
   5 H :   -0.000380
   6 C :   -0.363914
   7 O :   -0.087882
   8 H :    0.186767
   9 H :    0.100024
  10 H :    0.099298
  11 H :    0.099695

  Mayer bond orders larger than 0.1
B(  6-C ,  7-O ) :   0.9910 B(  6-C ,  9-H ) :   0.9678 B(  6-C , 10-H ) :   0.9775
B(  6-C , 11-H ) :   0.9747 B(  7-O ,  8-H ) :   0.8970

Dispersion correction           -0.000249891
FINAL SINGLE POINT ENERGY      -115.733294300960

DIPOLE MOMENT
-------------
                                X             Y             Z
Electronic contribution:     -0.46850       1.79239      -0.29389
Nuclear contribution   :      1.08907      -2.18234       0.38884
                        -----------------------------------------
Total Dipole Moment    :      0.62057      -0.38995       0.09495
                        -----------------------------------------
Magnitude (a.u.)       :      0.73904
Magnitude (Debye)      :      1.87850

Rotational constants in cm-1:     4.214568     0.796399     0.766685
Rotational constants in MHz : 126349.567307 23875.453324 22984.646621

                             ****ORCA TERMINATED NORMALLY****
TOTAL RUN TIME: 0 days 0 hours 0 minutes 56 seconds 279 msec
