                         Program Version 4.1.2  - RELEASE  -
|  1> #Run DFT-D3 single point of the dimer
|  2> ! wB97X-D3 def2-TZVP TIGHTSCF CHELPG PMODEL PAL8
|  3>
|  4> %base "13-202_DFT_AB"
|  5>
|  6> %scf
|  7> MaxIter 1000
|  8> end
|  9>
| 10> * xyz 0 1
| 11>   C                      -4.337666            0.501851             -1.889345
| 12>   O                      -5.619004            0.650676             -2.483384
| 13>   H                      -5.565727            1.294701             -3.176303
| 14>   H                      -4.456316            -0.139989            -0.980967
| 15>   H                      -3.606435            -0.028678            -2.449864
| 16>   H                      -3.910458            1.414120             -1.539723
| 17>   C                      -5.486069            3.512021             -4.913859
| 18>   O                      -6.167169            2.307264             -4.603572
| 19>   H                      -6.701712            2.041697             -5.373229
| 20>   H                      -5.168104            4.102406             -4.051643
| 21>   H                      -4.604469            3.379648             -5.458457
| 22>   H                      -6.112285            4.173370             -5.467415
| 23> *
| 24>
| 25> #Run DFT-D3 single point of the molecule with dimer basis set
| 26> $new_job
| 27> %base "13-202_DFT_A"
| 28> ! wB97X-D3 def2-TZVP TIGHTSCF CHELPG PMODEL
| 29>
| 30> %scf
| 31> MaxIter 1000
| 32> end
| 33>
| 34> * xyz 0 1
| 35>   C                      -4.337666            0.501851             -1.889345
| 36>   O                      -5.619004            0.650676             -2.483384
| 37>   H                      -5.565727            1.294701             -3.176303
| 38>   H                      -4.456316            -0.139989            -0.980967
| 39>   H                      -3.606435            -0.028678            -2.449864
| 40>   H                      -3.910458            1.414120             -1.539723
| 41>   C                    : -5.486069            3.512021             -4.913859
| 42>   O                    : -6.167169            2.307264             -4.603572
| 43>   H                    : -6.701712            2.041697             -5.373229
| 44>   H                    : -5.168104            4.102406             -4.051643
| 45>   H                    : -4.604469            3.379648             -5.458457
| 46>   H                    : -6.112285            4.173370             -5.467415
| 47> *
| 48>
| 49> #Run DFT-D3 single point of the particle with dimer basis set
| 50> $new_job
| 51> %base "13-202_DFT_B"
| 52> ! wB97X-D3 def2-TZVP TIGHTSCF CHELPG PMODEL
| 53>
| 54> %scf
| 55> MaxIter 1000
| 56> end
| 57>
| 58> * xyz 0 1
| 59>   C                    : -4.337666            0.501851             -1.889345
| 60>   O                    : -5.619004            0.650676             -2.483384
| 61>   H                    : -5.565727            1.294701             -3.176303
| 62>   H                    : -4.456316            -0.139989            -0.980967
| 63>   H                    : -3.606435            -0.028678            -2.449864
| 64>   H                    : -3.910458            1.414120             -1.539723
| 65>   C                      -5.486069            3.512021             -4.913859
| 66>   O                      -6.167169            2.307264             -4.603572
| 67>   H                      -6.701712            2.041697             -5.373229
| 68>   H                      -5.168104            4.102406             -4.051643
| 69>   H                      -4.604469            3.379648             -5.458457
| 70>   H                      -6.112285            4.173370             -5.467415
| 71> *
| 72>
| 73>                          ****END OF INPUT****
 Total Charge           Charge          ....    0
 Multiplicity           Mult            ....    1
 Number of Electrons    NEL             ....   36
Dispersion correction           -0.001604290
FINAL SINGLE POINT ENERGY      -231.472900860587
Dispersion correction           -0.000255911
FINAL SINGLE POINT ENERGY      -115.734372082443

CARTESIAN COORDINATES (ANGSTROEM)
---------------------------------
  C     -4.337666    0.501851   -1.889345
  O     -5.619004    0.650676   -2.483384
  H     -5.565727    1.294701   -3.176303
  H     -4.456316   -0.139989   -0.980967
  H     -3.606435   -0.028678   -2.449864
  H     -3.910458    1.414120   -1.539723
  C     -5.486069    3.512021   -4.913859
  O     -6.167169    2.307264   -4.603572
  H     -6.701712    2.041697   -5.373229
  H     -5.168104    4.102406   -4.051643
  H     -4.604469    3.379648   -5.458457
  H     -6.112285    4.173370   -5.467415

 Multiplicity           Mult            ....    1
 Number of Electrons    NEL             ....   18
 Basis Dimension        Dim             ....  172

ORBITAL ENERGIES
----------------

  NO   OCC          E(Eh)            E(eV)
   0   2.0000     -19.232551      -523.3443
   1   2.0000     -10.304926      -280.4113
   2   2.0000      -1.131896       -30.8005
   3   2.0000      -0.803524       -21.8650
   4   2.0000      -0.611579       -16.6419
   5   2.0000      -0.546059       -14.8590
   6   2.0000      -0.529634       -14.4121
   7   2.0000      -0.430653       -11.7187
   8   2.0000      -0.375973       -10.2307
   9   0.0000       0.098074         2.6687
  10   0.0000       0.121167         3.2971
  11   0.0000       0.150262         4.0888
  12   0.0000       0.192872         5.2483
  13   0.0000       0.205234         5.5847

MULLIKEN ATOMIC CHARGES
-----------------------
   0 C :    0.000462
   1 O :    0.002789
   2 H :   -0.014694
   3 H :   -0.000079
   4 H :   -0.000088
   5 H :   -0.000036
   6 C :   -0.161219
   7 O :   -0.474981
   8 H :    0.317411
   9 H :    0.118235
  10 H :    0.107581
  11 H :    0.104618
Sum of atomic charges:    0.0000000

LOEWDIN ATOMIC CHARGES
----------------------
   0 C :   -0.001256
   1 O :   -0.008878
   2 H :   -0.050729
   3 H :   -0.000031
   4 H :   -0.000056
   5 H :   -0.000040
   6 C :   -0.372653
   7 O :   -0.033689
   8 H :    0.178685
   9 H :    0.110009
  10 H :    0.085471
  11 H :    0.093167

  Mayer bond orders larger than 0.1
B(  6-C ,  7-O ) :   0.9890 B(  6-C ,  9-H ) :   0.9773 B(  6-C , 10-H ) :   0.9744
B(  6-C , 11-H ) :   0.9803 B(  7-O ,  8-H ) :   0.8932

Dispersion correction           -0.000244430
FINAL SINGLE POINT ENERGY      -115.732224752409

DIPOLE MOMENT
-------------
                                X             Y             Z
Electronic contribution:     -0.80984      -1.61426       0.52429
Nuclear contribution   :      0.74473       1.96086      -1.14902
                        -----------------------------------------
Total Dipole Moment    :     -0.06511       0.34660      -0.62473
                        -----------------------------------------
Magnitude (a.u.)       :      0.71740
Magnitude (Debye)      :      1.82348

Rotational constants in cm-1:     4.602268     0.820630     0.790737
Rotational constants in MHz : 137972.532921 24601.876661 23705.686702

                             ****ORCA TERMINATED NORMALLY****
TOTAL RUN TIME: 0 days 0 hours 1 minutes 3 seconds 210 msec
