                         Program Version 4.1.2  - RELEASE  -
|  1> #Run DFT-D3 single point of the dimer
|  2> ! wB97X-D3 def2-TZVP TIGHTSCF CHELPG PMODEL PAL8
|  3>
|  4> %base "15-41_DFT_AB"
|  5>
|  6> %scf
|  7> MaxIter 1000
|  8> end
|  9>
| 10> * xyz 0 1
| 11>   C                      7.027536             3.700445             1.588677
| 12>   O                      7.121738             4.093266             0.247516
| 13>   H                      7.366341             3.333908             -0.299382
| 14>   H                      8.023769             3.471064             2.076743
| 15>   H                      6.544191             4.464693             2.197487
| 16>   H                      6.420623             2.848499             1.708700
| 17>   C                      3.160590             5.904719             1.409526
| 18>   O                      1.952229             6.513314             1.905539
| 19>   H                      2.203480             7.011722             2.707374
| 20>   H                      3.131705             5.037513             0.685736
| 21>   H                      3.800379             6.728786             1.090960
| 22>   H                      3.782874             5.542182             2.299754
| 23> *
| 24>
| 25> #Run DFT-D3 single point of the molecule with dimer basis set
| 26> $new_job
| 27> %base "15-41_DFT_A"
| 28> ! wB97X-D3 def2-TZVP TIGHTSCF CHELPG PMODEL
| 29>
| 30> %scf
| 31> MaxIter 1000
| 32> end
| 33>
| 34> * xyz 0 1
| 35>   C                      7.027536             3.700445             1.588677
| 36>   O                      7.121738             4.093266             0.247516
| 37>   H                      7.366341             3.333908             -0.299382
| 38>   H                      8.023769             3.471064             2.076743
| 39>   H                      6.544191             4.464693             2.197487
| 40>   H                      6.420623             2.848499             1.708700
| 41>   C                    : 3.160590             5.904719             1.409526
| 42>   O                    : 1.952229             6.513314             1.905539
| 43>   H                    : 2.203480             7.011722             2.707374
| 44>   H                    : 3.131705             5.037513             0.685736
| 45>   H                    : 3.800379             6.728786             1.090960
| 46>   H                    : 3.782874             5.542182             2.299754
| 47> *
| 48>
| 49> #Run DFT-D3 single point of the particle with dimer basis set
| 50> $new_job
| 51> %base "15-41_DFT_B"
| 52> ! wB97X-D3 def2-TZVP TIGHTSCF CHELPG PMODEL
| 53>
| 54> %scf
| 55> MaxIter 1000
| 56> end
| 57>
| 58> * xyz 0 1
| 59>   C                    : 7.027536             3.700445             1.588677
| 60>   O                    : 7.121738             4.093266             0.247516
| 61>   H                    : 7.366341             3.333908             -0.299382
| 62>   H                    : 8.023769             3.471064             2.076743
| 63>   H                    : 6.544191             4.464693             2.197487
| 64>   H                    : 6.420623             2.848499             1.708700
| 65>   C                      3.160590             5.904719             1.409526
| 66>   O                      1.952229             6.513314             1.905539
| 67>   H                      2.203480             7.011722             2.707374
| 68>   H                      3.131705             5.037513             0.685736
| 69>   H                      3.800379             6.728786             1.090960
| 70>   H                      3.782874             5.542182             2.299754
| 71> *
| 72>
| 73>                          ****END OF INPUT****
 Total Charge           Charge          ....    0
 Multiplicity           Mult            ....    1
 Number of Electrons    NEL             ....   36
Dispersion correction           -0.001137631
FINAL SINGLE POINT ENERGY      -231.459038257775
Dispersion correction           -0.000247625
FINAL SINGLE POINT ENERGY      -115.734526547958

CARTESIAN COORDINATES (ANGSTROEM)
---------------------------------
  C      7.027536    3.700445    1.588677
  O      7.121738    4.093266    0.247516
  H      7.366341    3.333908   -0.299382
  H      8.023769    3.471064    2.076743
  H      6.544191    4.464693    2.197487
  H      6.420623    2.848499    1.708700
  C      3.160590    5.904719    1.409526
  O      1.952229    6.513314    1.905539
  H      2.203480    7.011722    2.707374
  H      3.131705    5.037513    0.685736
  H      3.800379    6.728786    1.090960
  H      3.782874    5.542182    2.299754

 Multiplicity           Mult            ....    1
 Number of Electrons    NEL             ....   18
 Basis Dimension        Dim             ....  172

ORBITAL ENERGIES
----------------

  NO   OCC          E(Eh)            E(eV)
   0   2.0000     -19.232615      -523.3460
   1   2.0000     -10.325566      -280.9729
   2   2.0000      -1.127096       -30.6698
   3   2.0000      -0.789088       -21.4722
   4   2.0000      -0.604911       -16.4605
   5   2.0000      -0.540520       -14.7083
   6   2.0000      -0.518645       -14.1130
   7   2.0000      -0.433309       -11.7909
   8   2.0000      -0.368034       -10.0147
   9   0.0000       0.079587         2.1657
  10   0.0000       0.108997         2.9660
  11   0.0000       0.141704         3.8560
  12   0.0000       0.160449         4.3660
  13   0.0000       0.187943         5.1142

MULLIKEN ATOMIC CHARGES
-----------------------
   0 C :    0.000444
   1 O :    0.000018
   2 H :    0.000001
   3 H :   -0.000055
   4 H :   -0.001268
   5 H :   -0.000092
   6 C :   -0.199361
   7 O :   -0.473415
   8 H :    0.320603
   9 H :    0.135402
  10 H :    0.116154
  11 H :    0.101569
Sum of atomic charges:    0.0000000

LOEWDIN ATOMIC CHARGES
----------------------
   0 C :   -0.000769
   1 O :   -0.000021
   2 H :   -0.000002
   3 H :   -0.000007
   4 H :   -0.001329
   5 H :   -0.000061
   6 C :   -0.385436
   7 O :   -0.108369
   8 H :    0.180634
   9 H :    0.116931
  10 H :    0.095879
  11 H :    0.102549

  Mayer bond orders larger than 0.1
B(  6-C ,  7-O ) :   0.9872 B(  6-C ,  9-H ) :   0.9619 B(  6-C , 10-H ) :   0.9777
B(  6-C , 11-H ) :   0.9841 B(  7-O ,  8-H ) :   0.8932

Dispersion correction           -0.000248475
FINAL SINGLE POINT ENERGY      -115.723593578077

DIPOLE MOMENT
-------------
                                X             Y             Z
Electronic contribution:     -1.82392       0.62704       0.29590
Nuclear contribution   :      2.48154      -0.56102       0.01335
                        -----------------------------------------
Total Dipole Moment    :      0.65762       0.06602       0.30925
                        -----------------------------------------
Magnitude (a.u.)       :      0.72969
Magnitude (Debye)      :      1.85474

Rotational constants in cm-1:     4.187862     0.801873     0.762848
Rotational constants in MHz : 125548.947953 24039.552933 22869.596120

                             ****ORCA TERMINATED NORMALLY****
TOTAL RUN TIME: 0 days 0 hours 1 minutes 1 seconds 873 msec
