                         Program Version 4.1.2  - RELEASE  -
|  1> #Run DFT-D3 single point of the dimer
|  2> ! wB97X-D3 def2-TZVP TIGHTSCF CHELPG PMODEL PAL8
|  3>
|  4> %base "10-48_DFT_AB"
|  5>
|  6> %scf
|  7> MaxIter 1000
|  8> end
|  9>
| 10> * xyz 0 1
| 11>   C                      6.640702             1.118679             1.001048
| 12>   O                      7.266035             -0.143782            1.123999
| 13>   H                      7.994274             -0.063849            0.473445
| 14>   H                      5.730766             1.058960             0.469523
| 15>   H                      6.333335             1.429739             2.003741
| 16>   H                      7.222567             1.942048             0.618447
| 17>   C                      8.342874             0.104326             4.201428
| 18>   O                      7.583200             -0.980625            4.645904
| 19>   H                      6.758597             -0.933515            4.068780
| 20>   H                      8.598974             -0.101445            3.202489
| 21>   H                      7.803589             1.065992             4.327193
| 22>   H                      9.238974             0.066731             4.795214
| 23> *
| 24>
| 25> #Run DFT-D3 single point of the molecule with dimer basis set
| 26> $new_job
| 27> %base "10-48_DFT_A"
| 28> ! wB97X-D3 def2-TZVP TIGHTSCF CHELPG PMODEL
| 29>
| 30> %scf
| 31> MaxIter 1000
| 32> end
| 33>
| 34> * xyz 0 1
| 35>   C                      6.640702             1.118679             1.001048
| 36>   O                      7.266035             -0.143782            1.123999
| 37>   H                      7.994274             -0.063849            0.473445
| 38>   H                      5.730766             1.058960             0.469523
| 39>   H                      6.333335             1.429739             2.003741
| 40>   H                      7.222567             1.942048             0.618447
| 41>   C                    : 8.342874             0.104326             4.201428
| 42>   O                    : 7.583200             -0.980625            4.645904
| 43>   H                    : 6.758597             -0.933515            4.068780
| 44>   H                    : 8.598974             -0.101445            3.202489
| 45>   H                    : 7.803589             1.065992             4.327193
| 46>   H                    : 9.238974             0.066731             4.795214
| 47> *
| 48>
| 49> #Run DFT-D3 single point of the particle with dimer basis set
| 50> $new_job
| 51> %base "10-48_DFT_B"
| 52> ! wB97X-D3 def2-TZVP TIGHTSCF CHELPG PMODEL
| 53>
| 54> %scf
| 55> MaxIter 1000
| 56> end
| 57>
| 58> * xyz 0 1
| 59>   C                    : 6.640702             1.118679             1.001048
| 60>   O                    : 7.266035             -0.143782            1.123999
| 61>   H                    : 7.994274             -0.063849            0.473445
| 62>   H                    : 5.730766             1.058960             0.469523
| 63>   H                    : 6.333335             1.429739             2.003741
| 64>   H                    : 7.222567             1.942048             0.618447
| 65>   C                      8.342874             0.104326             4.201428
| 66>   O                      7.583200             -0.980625            4.645904
| 67>   H                      6.758597             -0.933515            4.068780
| 68>   H                      8.598974             -0.101445            3.202489
| 69>   H                      7.803589             1.065992             4.327193
| 70>   H                      9.238974             0.066731             4.795214
| 71> *
| 72>
| 73>                          ****END OF INPUT****
 Total Charge           Charge          ....    0
 Multiplicity           Mult            ....    1
 Number of Electrons    NEL             ....   36
Dispersion correction           -0.002077710
FINAL SINGLE POINT ENERGY      -231.465168189944
Dispersion correction           -0.000239590
FINAL SINGLE POINT ENERGY      -115.731677383849

CARTESIAN COORDINATES (ANGSTROEM)
---------------------------------
  C      6.640702    1.118679    1.001048
  O      7.266035   -0.143782    1.123999
  H      7.994274   -0.063849    0.473445
  H      5.730766    1.058960    0.469523
  H      6.333335    1.429739    2.003741
  H      7.222567    1.942048    0.618447
  C      8.342874    0.104326    4.201428
  O      7.583200   -0.980625    4.645904
  H      6.758597   -0.933515    4.068780
  H      8.598974   -0.101445    3.202489
  H      7.803589    1.065992    4.327193
  H      9.238974    0.066731    4.795214

 Multiplicity           Mult            ....    1
 Number of Electrons    NEL             ....   18
 Basis Dimension        Dim             ....  172

ORBITAL ENERGIES
----------------

  NO   OCC          E(Eh)            E(eV)
   0   2.0000     -19.230817      -523.2971
   1   2.0000     -10.304878      -280.4100
   2   2.0000      -1.135259       -30.8920
   3   2.0000      -0.789233       -21.4761
   4   2.0000      -0.606964       -16.5163
   5   2.0000      -0.553059       -15.0495
   6   2.0000      -0.523256       -14.2385
   7   2.0000      -0.435371       -11.8471
   8   2.0000      -0.370614       -10.0849
   9   0.0000       0.072610         1.9758
  10   0.0000       0.120692         3.2842
  11   0.0000       0.152295         4.1441
  12   0.0000       0.159612         4.3433
  13   0.0000       0.195909         5.3310

MULLIKEN ATOMIC CHARGES
-----------------------
   0 C :   -0.001117
   1 O :    0.000210
   2 H :   -0.000223
   3 H :   -0.000091
   4 H :    0.000518
   5 H :    0.000185
   6 C :   -0.156659
   7 O :   -0.470280
   8 H :    0.311649
   9 H :    0.100938
  10 H :    0.097054
  11 H :    0.117817
Sum of atomic charges:   -0.0000000

LOEWDIN ATOMIC CHARGES
----------------------
   0 C :   -0.004108
   1 O :   -0.006143
   2 H :   -0.001185
   3 H :   -0.000049
   4 H :   -0.001675
   5 H :   -0.000082
   6 C :   -0.392699
   7 O :   -0.085641
   8 H :    0.195972
   9 H :    0.089821
  10 H :    0.099303
  11 H :    0.106486

  Mayer bond orders larger than 0.1
B(  6-C ,  7-O ) :   0.9987 B(  6-C ,  9-H ) :   0.9857 B(  6-C , 10-H ) :   0.9740
B(  6-C , 11-H ) :   0.9741 B(  7-O ,  8-H ) :   0.8991

Dispersion correction           -0.000201165
FINAL SINGLE POINT ENERGY      -115.730799534040

DIPOLE MOMENT
-------------
                                X             Y             Z
Electronic contribution:     -0.80970      -1.33891       0.64878
Nuclear contribution   :      0.62165       1.76301      -1.16729
                        -----------------------------------------
Total Dipole Moment    :     -0.18805       0.42409      -0.51851
                        -----------------------------------------
Magnitude (a.u.)       :      0.69575
Magnitude (Debye)      :      1.76845

Rotational constants in cm-1:     4.131512     0.869538     0.833641
Rotational constants in MHz : 123859.622570 26068.091389 24991.936725

                             ****ORCA TERMINATED NORMALLY****
TOTAL RUN TIME: 0 days 0 hours 1 minutes 6 seconds 943 msec
