                         Program Version 4.1.2  - RELEASE  -
|  1> #Run DFT-D3 single point of the dimer
|  2> ! wB97X-D3 def2-TZVP TIGHTSCF CHELPG PMODEL PAL8
|  3>
|  4> %base "9-183_DFT_AB"
|  5>
|  6> %scf
|  7> MaxIter 1000
|  8> end
|  9>
| 10> * xyz 0 1
| 11>   C                      6.804729             -0.704950            -7.887372
| 12>   O                      6.880612             -0.780466            -6.510407
| 13>   H                      5.998405             -0.399202            -6.234697
| 14>   H                      6.714294             0.342901             -8.198048
| 15>   H                      7.732238             -1.110725            -8.347667
| 16>   H                      5.955156             -1.278324            -8.377200
| 17>   C                      3.170945             0.983623             -6.569867
| 18>   O                      4.280881             0.472252             -5.817686
| 19>   H                      4.458388             1.056046             -5.107771
| 20>   H                      3.371466             2.121854             -6.607864
| 21>   H                      3.348184             0.656798             -7.618752
| 22>   H                      2.126035             0.707362             -6.156423
| 23> *
| 24>
| 25> #Run DFT-D3 single point of the molecule with dimer basis set
| 26> $new_job
| 27> %base "9-183_DFT_A"
| 28> ! wB97X-D3 def2-TZVP TIGHTSCF CHELPG PMODEL
| 29>
| 30> %scf
| 31> MaxIter 1000
| 32> end
| 33>
| 34> * xyz 0 1
| 35>   C                      6.804729             -0.704950            -7.887372
| 36>   O                      6.880612             -0.780466            -6.510407
| 37>   H                      5.998405             -0.399202            -6.234697
| 38>   H                      6.714294             0.342901             -8.198048
| 39>   H                      7.732238             -1.110725            -8.347667
| 40>   H                      5.955156             -1.278324            -8.377200
| 41>   C                    : 3.170945             0.983623             -6.569867
| 42>   O                    : 4.280881             0.472252             -5.817686
| 43>   H                    : 4.458388             1.056046             -5.107771
| 44>   H                    : 3.371466             2.121854             -6.607864
| 45>   H                    : 3.348184             0.656798             -7.618752
| 46>   H                    : 2.126035             0.707362             -6.156423
| 47> *
| 48>
| 49> #Run DFT-D3 single point of the particle with dimer basis set
| 50> $new_job
| 51> %base "9-183_DFT_B"
| 52> ! wB97X-D3 def2-TZVP TIGHTSCF CHELPG PMODEL
| 53>
| 54> %scf
| 55> MaxIter 1000
| 56> end
| 57>
| 58> * xyz 0 1
| 59>   C                    : 6.804729             -0.704950            -7.887372
| 60>   O                    : 6.880612             -0.780466            -6.510407
| 61>   H                    : 5.998405             -0.399202            -6.234697
| 62>   H                    : 6.714294             0.342901             -8.198048
| 63>   H                    : 7.732238             -1.110725            -8.347667
| 64>   H                    : 5.955156             -1.278324            -8.377200
| 65>   C                      3.170945             0.983623             -6.569867
| 66>   O                      4.280881             0.472252             -5.817686
| 67>   H                      4.458388             1.056046             -5.107771
| 68>   H                      3.371466             2.121854             -6.607864
| 69>   H                      3.348184             0.656798             -7.618752
| 70>   H                      2.126035             0.707362             -6.156423
| 71> *
| 72>
| 73>                          ****END OF INPUT****
 Total Charge           Charge          ....    0
 Multiplicity           Mult            ....    1
 Number of Electrons    NEL             ....   36
Dispersion correction           -0.001852638
FINAL SINGLE POINT ENERGY      -231.469639334034
Dispersion correction           -0.000228364
FINAL SINGLE POINT ENERGY      -115.732356138126

CARTESIAN COORDINATES (ANGSTROEM)
---------------------------------
  C      6.804729   -0.704950   -7.887372
  O      6.880612   -0.780466   -6.510407
  H      5.998405   -0.399202   -6.234697
  H      6.714294    0.342901   -8.198048
  H      7.732238   -1.110725   -8.347667
  H      5.955156   -1.278324   -8.377200
  C      3.170945    0.983623   -6.569867
  O      4.280881    0.472252   -5.817686
  H      4.458388    1.056046   -5.107771
  H      3.371466    2.121854   -6.607864
  H      3.348184    0.656798   -7.618752
  H      2.126035    0.707362   -6.156423

 Multiplicity           Mult            ....    1
 Number of Electrons    NEL             ....   18
 Basis Dimension        Dim             ....  172

ORBITAL ENERGIES
----------------

  NO   OCC          E(Eh)            E(eV)
   0   2.0000     -19.227443      -523.2053
   1   2.0000     -10.331731      -281.1407
   2   2.0000      -1.135379       -30.8952
   3   2.0000      -0.787925       -21.4405
   4   2.0000      -0.603465       -16.4211
   5   2.0000      -0.541671       -14.7396
   6   2.0000      -0.521408       -14.1882
   7   2.0000      -0.425351       -11.5744
   8   2.0000      -0.376235       -10.2379
   9   0.0000       0.095200         2.5905
  10   0.0000       0.124502         3.3879
  11   0.0000       0.148068         4.0291
  12   0.0000       0.183517         4.9937
  13   0.0000       0.192669         5.2428

MULLIKEN ATOMIC CHARGES
-----------------------
   0 C :    0.003713
   1 O :   -0.000460
   2 H :   -0.010380
   3 H :   -0.002608
   4 H :   -0.000228
   5 H :   -0.000893
   6 C :   -0.175250
   7 O :   -0.466867
   8 H :    0.311346
   9 H :    0.103239
  10 H :    0.127880
  11 H :    0.110508
Sum of atomic charges:    0.0000000

LOEWDIN ATOMIC CHARGES
----------------------
   0 C :   -0.004158
   1 O :   -0.003866
   2 H :   -0.040688
   3 H :   -0.000823
   4 H :   -0.000055
   5 H :   -0.000252
   6 C :   -0.382331
   7 O :   -0.045220
   8 H :    0.150655
   9 H :    0.107933
  10 H :    0.111232
  11 H :    0.107572

  Mayer bond orders larger than 0.1
B(  6-C ,  7-O ) :   0.9869 B(  6-C ,  9-H ) :   0.9860 B(  6-C , 10-H ) :   0.9755
B(  6-C , 11-H ) :   0.9550 B(  7-O ,  8-H ) :   0.9033

Dispersion correction           -0.000261784
FINAL SINGLE POINT ENERGY      -115.727776462769

DIPOLE MOMENT
-------------
                                X             Y             Z
Electronic contribution:      1.25599      -0.86566       0.89871
Nuclear contribution   :     -1.56313       1.45240      -0.75742
                        -----------------------------------------
Total Dipole Moment    :     -0.30714       0.58675       0.14129
                        -----------------------------------------
Magnitude (a.u.)       :      0.67718
Magnitude (Debye)      :      1.72125

Rotational constants in cm-1:     3.959218     0.805193     0.791118
Rotational constants in MHz : 118694.368942 24139.063877 23717.124898

                             ****ORCA TERMINATED NORMALLY****
TOTAL RUN TIME: 0 days 0 hours 0 minutes 46 seconds 835 msec
