                         Program Version 4.1.2  - RELEASE  -
|  1> #Run DFT-D3 single point of the dimer
|  2> ! wB97X-D3 def2-TZVP TIGHTSCF CHELPG PMODEL PAL8
|  3>
|  4> %base "14-105_DFT_AB"
|  5>
|  6> %scf
|  7> MaxIter 1000
|  8> end
|  9>
| 10> * xyz 0 1
| 11>   C                      -9.038120            -4.940039            -9.359622
| 12>   O                      -8.941771            -4.116648            -10.481134
| 13>   H                      -8.041680            -3.849883            -10.587867
| 14>   H                      -9.704550            -5.762499            -9.452539
| 15>   H                      -8.020437            -5.364017            -9.158092
| 16>   H                      -9.342854            -4.350569            -8.499982
| 17>   C                      -5.754778            -3.235846            -8.383707
| 18>   O                      -6.142483            -3.431664            -9.751502
| 19>   H                      -6.132992            -2.534112            -10.024750
| 20>   H                      -5.479652            -4.266098            -7.984247
| 21>   H                      -4.861742            -2.610038            -8.240362
| 22>   H                      -6.566594            -2.828277            -7.769260
| 23> *
| 24>
| 25> #Run DFT-D3 single point of the molecule with dimer basis set
| 26> $new_job
| 27> %base "14-105_DFT_A"
| 28> ! wB97X-D3 def2-TZVP TIGHTSCF CHELPG PMODEL
| 29>
| 30> %scf
| 31> MaxIter 1000
| 32> end
| 33>
| 34> * xyz 0 1
| 35>   C                      -9.038120            -4.940039            -9.359622
| 36>   O                      -8.941771            -4.116648            -10.481134
| 37>   H                      -8.041680            -3.849883            -10.587867
| 38>   H                      -9.704550            -5.762499            -9.452539
| 39>   H                      -8.020437            -5.364017            -9.158092
| 40>   H                      -9.342854            -4.350569            -8.499982
| 41>   C                    : -5.754778            -3.235846            -8.383707
| 42>   O                    : -6.142483            -3.431664            -9.751502
| 43>   H                    : -6.132992            -2.534112            -10.024750
| 44>   H                    : -5.479652            -4.266098            -7.984247
| 45>   H                    : -4.861742            -2.610038            -8.240362
| 46>   H                    : -6.566594            -2.828277            -7.769260
| 47> *
| 48>
| 49> #Run DFT-D3 single point of the particle with dimer basis set
| 50> $new_job
| 51> %base "14-105_DFT_B"
| 52> ! wB97X-D3 def2-TZVP TIGHTSCF CHELPG PMODEL
| 53>
| 54> %scf
| 55> MaxIter 1000
| 56> end
| 57>
| 58> * xyz 0 1
| 59>   C                    : -9.038120            -4.940039            -9.359622
| 60>   O                    : -8.941771            -4.116648            -10.481134
| 61>   H                    : -8.041680            -3.849883            -10.587867
| 62>   H                    : -9.704550            -5.762499            -9.452539
| 63>   H                    : -8.020437            -5.364017            -9.158092
| 64>   H                    : -9.342854            -4.350569            -8.499982
| 65>   C                      -5.754778            -3.235846            -8.383707
| 66>   O                      -6.142483            -3.431664            -9.751502
| 67>   H                      -6.132992            -2.534112            -10.024750
| 68>   H                      -5.479652            -4.266098            -7.984247
| 69>   H                      -4.861742            -2.610038            -8.240362
| 70>   H                      -6.566594            -2.828277            -7.769260
| 71> *
| 72>
| 73>                          ****END OF INPUT****
 Total Charge           Charge          ....    0
 Multiplicity           Mult            ....    1
 Number of Electrons    NEL             ....   36
Dispersion correction           -0.002172757
FINAL SINGLE POINT ENERGY      -231.472842045572
Dispersion correction           -0.000228417
FINAL SINGLE POINT ENERGY      -115.733324638044

CARTESIAN COORDINATES (ANGSTROEM)
---------------------------------
  C     -9.038120   -4.940039   -9.359622
  O     -8.941771   -4.116648  -10.481134
  H     -8.041680   -3.849883  -10.587867
  H     -9.704550   -5.762499   -9.452539
  H     -8.020437   -5.364017   -9.158092
  H     -9.342854   -4.350569   -8.499982
  C     -5.754778   -3.235846   -8.383707
  O     -6.142483   -3.431664   -9.751502
  H     -6.132992   -2.534112  -10.024750
  H     -5.479652   -4.266098   -7.984247
  H     -4.861742   -2.610038   -8.240362
  H     -6.566594   -2.828277   -7.769260

 Multiplicity           Mult            ....    1
 Number of Electrons    NEL             ....   18
 Basis Dimension        Dim             ....  172

ORBITAL ENERGIES
----------------

  NO   OCC          E(Eh)            E(eV)
   0   2.0000     -19.234606      -523.4002
   1   2.0000     -10.321021      -280.8493
   2   2.0000      -1.143405       -31.1136
   3   2.0000      -0.790695       -21.5159
   4   2.0000      -0.610790       -16.6204
   5   2.0000      -0.542654       -14.7664
   6   2.0000      -0.516293       -14.0490
   7   2.0000      -0.445249       -12.1158
   8   2.0000      -0.379623       -10.3301
   9   0.0000       0.096364         2.6222
  10   0.0000       0.130918         3.5625
  11   0.0000       0.148441         4.0393
  12   0.0000       0.181424         4.9368
  13   0.0000       0.191595         5.2136

MULLIKEN ATOMIC CHARGES
-----------------------
   0 C :    0.007744
   1 O :   -0.001329
   2 H :   -0.012840
   3 H :    0.000043
   4 H :   -0.002220
   5 H :   -0.001326
   6 C :   -0.198784
   7 O :   -0.444941
   8 H :    0.308757
   9 H :    0.116401
  10 H :    0.114859
  11 H :    0.113636
Sum of atomic charges:   -0.0000000

LOEWDIN ATOMIC CHARGES
----------------------
   0 C :   -0.007258
   1 O :   -0.004583
   2 H :   -0.028606
   3 H :   -0.000073
   4 H :   -0.003454
   5 H :   -0.000362
   6 C :   -0.383831
   7 O :   -0.041319
   8 H :    0.158623
   9 H :    0.117568
  10 H :    0.097342
  11 H :    0.095953

  Mayer bond orders larger than 0.1
B(  6-C ,  7-O ) :   0.9929 B(  6-C ,  9-H ) :   0.9796 B(  6-C , 10-H ) :   0.9670
B(  6-C , 11-H ) :   0.9699 B(  7-O ,  8-H ) :   0.9079

Dispersion correction           -0.000237106
FINAL SINGLE POINT ENERGY      -115.732481416912

DIPOLE MOMENT
-------------
                                X             Y             Z
Electronic contribution:     -0.52826      -0.30881      -1.79641
Nuclear contribution   :      0.70568       0.94321       2.15627
                        -----------------------------------------
Total Dipole Moment    :      0.17742       0.63441       0.35986
                        -----------------------------------------
Magnitude (a.u.)       :      0.75063
Magnitude (Debye)      :      1.90795

Rotational constants in cm-1:     4.160943     0.818495     0.787070
Rotational constants in MHz : 124741.928887 24537.870766 23595.761001

                             ****ORCA TERMINATED NORMALLY****
TOTAL RUN TIME: 0 days 0 hours 0 minutes 59 seconds 724 msec
