                         Program Version 4.1.2  - RELEASE  -
|  1> #Run DFT-D3 single point of the dimer
|  2> ! wB97X-D3 def2-TZVP TIGHTSCF CHELPG PMODEL PAL8
|  3>
|  4> %base "17-95_DFT_AB"
|  5>
|  6> %scf
|  7> MaxIter 1000
|  8> end
|  9>
| 10> * xyz 0 1
| 11>   C                      6.352193             4.195746             -4.190666
| 12>   O                      5.100575             4.500113             -4.616961
| 13>   H                      4.495087             4.304367             -3.860152
| 14>   H                      7.093230             4.700914             -4.815245
| 15>   H                      6.551793             4.589563             -3.174605
| 16>   H                      6.623159             3.143777             -4.209572
| 17>   C                      5.054067             9.348535             -0.828592
| 18>   O                      4.545536             8.325056             -1.653997
| 19>   H                      3.968894             8.749369             -2.261235
| 20>   H                      5.746335             10.032893            -1.249748
| 21>   H                      4.274785             9.977519             -0.417629
| 22>   H                      5.502303             8.937228             0.087783
| 23> *
| 24>
| 25> #Run DFT-D3 single point of the molecule with dimer basis set
| 26> $new_job
| 27> %base "17-95_DFT_A"
| 28> ! wB97X-D3 def2-TZVP TIGHTSCF CHELPG PMODEL
| 29>
| 30> %scf
| 31> MaxIter 1000
| 32> end
| 33>
| 34> * xyz 0 1
| 35>   C                      6.352193             4.195746             -4.190666
| 36>   O                      5.100575             4.500113             -4.616961
| 37>   H                      4.495087             4.304367             -3.860152
| 38>   H                      7.093230             4.700914             -4.815245
| 39>   H                      6.551793             4.589563             -3.174605
| 40>   H                      6.623159             3.143777             -4.209572
| 41>   C                    : 5.054067             9.348535             -0.828592
| 42>   O                    : 4.545536             8.325056             -1.653997
| 43>   H                    : 3.968894             8.749369             -2.261235
| 44>   H                    : 5.746335             10.032893            -1.249748
| 45>   H                    : 4.274785             9.977519             -0.417629
| 46>   H                    : 5.502303             8.937228             0.087783
| 47> *
| 48>
| 49> #Run DFT-D3 single point of the particle with dimer basis set
| 50> $new_job
| 51> %base "17-95_DFT_B"
| 52> ! wB97X-D3 def2-TZVP TIGHTSCF CHELPG PMODEL
| 53>
| 54> %scf
| 55> MaxIter 1000
| 56> end
| 57>
| 58> * xyz 0 1
| 59>   C                    : 6.352193             4.195746             -4.190666
| 60>   O                    : 5.100575             4.500113             -4.616961
| 61>   H                    : 4.495087             4.304367             -3.860152
| 62>   H                    : 7.093230             4.700914             -4.815245
| 63>   H                    : 6.551793             4.589563             -3.174605
| 64>   H                    : 6.623159             3.143777             -4.209572
| 65>   C                      5.054067             9.348535             -0.828592
| 66>   O                      4.545536             8.325056             -1.653997
| 67>   H                      3.968894             8.749369             -2.261235
| 68>   H                      5.746335             10.032893            -1.249748
| 69>   H                      4.274785             9.977519             -0.417629
| 70>   H                      5.502303             8.937228             0.087783
| 71> *
| 72>
| 73>                          ****END OF INPUT****
 Total Charge           Charge          ....    0
 Multiplicity           Mult            ....    1
 Number of Electrons    NEL             ....   36
Dispersion correction           -0.000631890
FINAL SINGLE POINT ENERGY      -231.466938463273
Dispersion correction           -0.000226117
FINAL SINGLE POINT ENERGY      -115.733136393985

CARTESIAN COORDINATES (ANGSTROEM)
---------------------------------
  C      6.352193    4.195746   -4.190666
  O      5.100575    4.500113   -4.616961
  H      4.495087    4.304367   -3.860152
  H      7.093230    4.700914   -4.815245
  H      6.551793    4.589563   -3.174605
  H      6.623159    3.143777   -4.209572
  C      5.054067    9.348535   -0.828592
  O      4.545536    8.325056   -1.653997
  H      3.968894    8.749369   -2.261235
  H      5.746335   10.032893   -1.249748
  H      4.274785    9.977519   -0.417629
  H      5.502303    8.937228    0.087783

 Multiplicity           Mult            ....    1
 Number of Electrons    NEL             ....   18
 Basis Dimension        Dim             ....  172

ORBITAL ENERGIES
----------------

  NO   OCC          E(Eh)            E(eV)
   0   2.0000     -19.232339      -523.3385
   1   2.0000     -10.308393      -280.5056
   2   2.0000      -1.144534       -31.1444
   3   2.0000      -0.802051       -21.8249
   4   2.0000      -0.619252       -16.8507
   5   2.0000      -0.543092       -14.7783
   6   2.0000      -0.526693       -14.3321
   7   2.0000      -0.436314       -11.8727
   8   2.0000      -0.377872       -10.2824
   9   0.0000       0.094450         2.5701
  10   0.0000       0.118832         3.2336
  11   0.0000       0.152903         4.1607
  12   0.0000       0.174659         4.7527
  13   0.0000       0.200674         5.4606

MULLIKEN ATOMIC CHARGES
-----------------------
   0 C :    0.000021
   1 O :    0.000018
   2 H :   -0.000098
   3 H :    0.000020
   4 H :   -0.000363
   5 H :   -0.000021
   6 C :   -0.172186
   7 O :   -0.462685
   8 H :    0.311707
   9 H :    0.106243
  10 H :    0.101136
  11 H :    0.116208
Sum of atomic charges:    0.0000000

LOEWDIN ATOMIC CHARGES
----------------------
   0 C :   -0.000097
   1 O :   -0.000009
   2 H :   -0.000053
   3 H :   -0.000001
   4 H :   -0.000118
   5 H :   -0.000005
   6 C :   -0.390723
   7 O :   -0.058225
   8 H :    0.157810
   9 H :    0.086874
  10 H :    0.093404
  11 H :    0.111141

  Mayer bond orders larger than 0.1
B(  6-C ,  7-O ) :   1.0048 B(  6-C ,  9-H ) :   0.9689 B(  6-C , 10-H ) :   0.9824
B(  6-C , 11-H ) :   0.9762 B(  7-O ,  8-H ) :   0.9051

Dispersion correction           -0.000241732
FINAL SINGLE POINT ENERGY      -115.733119055498

DIPOLE MOMENT
-------------
                                X             Y             Z
Electronic contribution:     -0.53879      -1.47496      -1.15762
Nuclear contribution   :      0.35572       2.15844       1.10900
                        -----------------------------------------
Total Dipole Moment    :     -0.18307       0.68348      -0.04863
                        -----------------------------------------
Magnitude (a.u.)       :      0.70924
Magnitude (Debye)      :      1.80275

Rotational constants in cm-1:     4.558261     0.829686     0.799697
Rotational constants in MHz : 136653.217777 24873.347928 23974.316279

                             ****ORCA TERMINATED NORMALLY****
TOTAL RUN TIME: 0 days 0 hours 1 minutes 7 seconds 899 msec
