                         Program Version 4.1.2  - RELEASE  -
|  1> #Run DFT-D3 single point of the dimer
|  2> ! wB97X-D3 def2-TZVP TIGHTSCF CHELPG PMODEL PAL8
|  3>
|  4> %base "15-67_DFT_AB"
|  5>
|  6> %scf
|  7> MaxIter 1000
|  8> end
|  9>
| 10> * xyz 0 1
| 11>   C                      0.395747             0.499302             3.166637
| 12>   O                      -0.741435            1.109411             2.820772
| 13>   H                      -1.443136            0.800324             3.428644
| 14>   H                      0.572906             0.753819             4.234277
| 15>   H                      0.320529             -0.597235            3.056164
| 16>   H                      1.203881             0.845296             2.442496
| 17>   C                      0.670655             -3.364613            3.881287
| 18>   O                      1.611052             -4.392072            3.681750
| 19>   H                      1.133974             -5.221009            3.843205
| 20>   H                      1.203016             -2.432358            4.074149
| 21>   H                      -0.108688            -3.330389            3.112099
| 22>   H                      0.043285             -3.570151            4.731426
| 23> *
| 24>
| 25> #Run DFT-D3 single point of the molecule with dimer basis set
| 26> $new_job
| 27> %base "15-67_DFT_A"
| 28> ! wB97X-D3 def2-TZVP TIGHTSCF CHELPG PMODEL
| 29>
| 30> %scf
| 31> MaxIter 1000
| 32> end
| 33>
| 34> * xyz 0 1
| 35>   C                      0.395747             0.499302             3.166637
| 36>   O                      -0.741435            1.109411             2.820772
| 37>   H                      -1.443136            0.800324             3.428644
| 38>   H                      0.572906             0.753819             4.234277
| 39>   H                      0.320529             -0.597235            3.056164
| 40>   H                      1.203881             0.845296             2.442496
| 41>   C                    : 0.670655             -3.364613            3.881287
| 42>   O                    : 1.611052             -4.392072            3.681750
| 43>   H                    : 1.133974             -5.221009            3.843205
| 44>   H                    : 1.203016             -2.432358            4.074149
| 45>   H                    : -0.108688            -3.330389            3.112099
| 46>   H                    : 0.043285             -3.570151            4.731426
| 47> *
| 48>
| 49> #Run DFT-D3 single point of the particle with dimer basis set
| 50> $new_job
| 51> %base "15-67_DFT_B"
| 52> ! wB97X-D3 def2-TZVP TIGHTSCF CHELPG PMODEL
| 53>
| 54> %scf
| 55> MaxIter 1000
| 56> end
| 57>
| 58> * xyz 0 1
| 59>   C                    : 0.395747             0.499302             3.166637
| 60>   O                    : -0.741435            1.109411             2.820772
| 61>   H                    : -1.443136            0.800324             3.428644
| 62>   H                    : 0.572906             0.753819             4.234277
| 63>   H                    : 0.320529             -0.597235            3.056164
| 64>   H                    : 1.203881             0.845296             2.442496
| 65>   C                      0.670655             -3.364613            3.881287
| 66>   O                      1.611052             -4.392072            3.681750
| 67>   H                      1.133974             -5.221009            3.843205
| 68>   H                      1.203016             -2.432358            4.074149
| 69>   H                      -0.108688            -3.330389            3.112099
| 70>   H                      0.043285             -3.570151            4.731426
| 71> *
| 72>
| 73>                          ****END OF INPUT****
 Total Charge           Charge          ....    0
 Multiplicity           Mult            ....    1
 Number of Electrons    NEL             ....   36
Dispersion correction           -0.001290324
FINAL SINGLE POINT ENERGY      -231.460840853685
Dispersion correction           -0.000199292
FINAL SINGLE POINT ENERGY      -115.728195650061

CARTESIAN COORDINATES (ANGSTROEM)
---------------------------------
  C      0.395747    0.499302    3.166637
  O     -0.741435    1.109411    2.820772
  H     -1.443136    0.800324    3.428644
  H      0.572906    0.753819    4.234277
  H      0.320529   -0.597235    3.056164
  H      1.203881    0.845296    2.442496
  C      0.670655   -3.364613    3.881287
  O      1.611052   -4.392072    3.681750
  H      1.133974   -5.221009    3.843205
  H      1.203016   -2.432358    4.074149
  H     -0.108688   -3.330389    3.112099
  H      0.043285   -3.570151    4.731426

 Multiplicity           Mult            ....    1
 Number of Electrons    NEL             ....   18
 Basis Dimension        Dim             ....  172

ORBITAL ENERGIES
----------------

  NO   OCC          E(Eh)            E(eV)
   0   2.0000     -19.231674      -523.3205
   1   2.0000     -10.310236      -280.5558
   2   2.0000      -1.138185       -30.9716
   3   2.0000      -0.795221       -21.6391
   4   2.0000      -0.618731       -16.8365
   5   2.0000      -0.539288       -14.6748
   6   2.0000      -0.522793       -14.2259
   7   2.0000      -0.441594       -12.0164
   8   2.0000      -0.370102       -10.0710
   9   0.0000       0.086831         2.3628
  10   0.0000       0.112918         3.0727
  11   0.0000       0.160025         4.3545
  12   0.0000       0.161704         4.4002
  13   0.0000       0.187669         5.1067

MULLIKEN ATOMIC CHARGES
-----------------------
   0 C :    0.001389
   1 O :   -0.000060
   2 H :   -0.000030
   3 H :   -0.000273
   4 H :   -0.002578
   5 H :   -0.000076
   6 C :   -0.164162
   7 O :   -0.463791
   8 H :    0.313475
   9 H :    0.125450
  10 H :    0.092397
  11 H :    0.098258
Sum of atomic charges:    0.0000000

LOEWDIN ATOMIC CHARGES
----------------------
   0 C :   -0.003339
   1 O :   -0.000016
   2 H :   -0.000006
   3 H :   -0.000192
   4 H :   -0.006497
   5 H :   -0.000034
   6 C :   -0.389634
   7 O :   -0.074984
   8 H :    0.176503
   9 H :    0.112817
  10 H :    0.094501
  11 H :    0.090881

  Mayer bond orders larger than 0.1
B(  6-C ,  7-O ) :   1.0052 B(  6-C ,  9-H ) :   0.9739 B(  6-C , 10-H ) :   0.9699
B(  6-C , 11-H ) :   0.9807 B(  7-O ,  8-H ) :   0.8997

Dispersion correction           -0.000225718
FINAL SINGLE POINT ENERGY      -115.732646587622

DIPOLE MOMENT
-------------
                                X             Y             Z
Electronic contribution:      1.41919      -1.15523      -0.35225
Nuclear contribution   :     -2.09204       1.01972       0.56563
                        -----------------------------------------
Total Dipole Moment    :     -0.67284      -0.13550       0.21338
                        -----------------------------------------
Magnitude (a.u.)       :      0.71876
Magnitude (Debye)      :      1.82693

Rotational constants in cm-1:     4.301921     0.847783     0.803917
Rotational constants in MHz : 128968.352535 25415.898153 24100.837411

                             ****ORCA TERMINATED NORMALLY****
TOTAL RUN TIME: 0 days 0 hours 1 minutes 1 seconds 110 msec
