                         Program Version 4.1.2  - RELEASE  -
|  1> #Run DFT-D3 single point of the dimer
|  2> ! wB97X-D3 def2-TZVP TIGHTSCF CHELPG PMODEL PAL8
|  3>
|  4> %base "1-181_DFT_AB"
|  5>
|  6> %scf
|  7> MaxIter 1000
|  8> end
|  9>
| 10> * xyz 0 1
| 11>   C                      8.145846             11.783341            0.442397
| 12>   O                      8.499043             10.451135            0.127607
| 13>   H                      7.846005             10.130559            -0.477154
| 14>   H                      7.056887             11.959913            0.720150
| 15>   H                      8.715638             12.109404            1.251351
| 16>   H                      8.423194             12.477013            -0.366497
| 17>   C                      9.181300             4.957089             1.781080
| 18>   O                      7.961857             5.611285             1.456330
| 19>   H                      8.138228             6.535175             1.390306
| 20>   H                      9.211802             3.933840             1.389004
| 21>   H                      10.081265            5.449572             1.380447
| 22>   H                      9.377107             4.866115             2.839513
| 23> *
| 24>
| 25> #Run DFT-D3 single point of the molecule with dimer basis set
| 26> $new_job
| 27> %base "1-181_DFT_A"
| 28> ! wB97X-D3 def2-TZVP TIGHTSCF CHELPG PMODEL
| 29>
| 30> %scf
| 31> MaxIter 1000
| 32> end
| 33>
| 34> * xyz 0 1
| 35>   C                      8.145846             11.783341            0.442397
| 36>   O                      8.499043             10.451135            0.127607
| 37>   H                      7.846005             10.130559            -0.477154
| 38>   H                      7.056887             11.959913            0.720150
| 39>   H                      8.715638             12.109404            1.251351
| 40>   H                      8.423194             12.477013            -0.366497
| 41>   C                    : 9.181300             4.957089             1.781080
| 42>   O                    : 7.961857             5.611285             1.456330
| 43>   H                    : 8.138228             6.535175             1.390306
| 44>   H                    : 9.211802             3.933840             1.389004
| 45>   H                    : 10.081265            5.449572             1.380447
| 46>   H                    : 9.377107             4.866115             2.839513
| 47> *
| 48>
| 49> #Run DFT-D3 single point of the particle with dimer basis set
| 50> $new_job
| 51> %base "1-181_DFT_B"
| 52> ! wB97X-D3 def2-TZVP TIGHTSCF CHELPG PMODEL
| 53>
| 54> %scf
| 55> MaxIter 1000
| 56> end
| 57>
| 58> * xyz 0 1
| 59>   C                    : 8.145846             11.783341            0.442397
| 60>   O                    : 8.499043             10.451135            0.127607
| 61>   H                    : 7.846005             10.130559            -0.477154
| 62>   H                    : 7.056887             11.959913            0.720150
| 63>   H                    : 8.715638             12.109404            1.251351
| 64>   H                    : 8.423194             12.477013            -0.366497
| 65>   C                      9.181300             4.957089             1.781080
| 66>   O                      7.961857             5.611285             1.456330
| 67>   H                      8.138228             6.535175             1.390306
| 68>   H                      9.211802             3.933840             1.389004
| 69>   H                      10.081265            5.449572             1.380447
| 70>   H                      9.377107             4.866115             2.839513
| 71> *
| 72>
| 73>                          ****END OF INPUT****
 Total Charge           Charge          ....    0
 Multiplicity           Mult            ....    1
 Number of Electrons    NEL             ....   36
Dispersion correction           -0.000653091
FINAL SINGLE POINT ENERGY      -231.469648706719
Dispersion correction           -0.000252049
FINAL SINGLE POINT ENERGY      -115.733610691501

CARTESIAN COORDINATES (ANGSTROEM)
---------------------------------
  C      8.145846   11.783341    0.442397
  O      8.499043   10.451135    0.127607
  H      7.846005   10.130559   -0.477154
  H      7.056887   11.959913    0.720150
  H      8.715638   12.109404    1.251351
  H      8.423194   12.477013   -0.366497
  C      9.181300    4.957089    1.781080
  O      7.961857    5.611285    1.456330
  H      8.138228    6.535175    1.390306
  H      9.211802    3.933840    1.389004
  H     10.081265    5.449572    1.380447
  H      9.377107    4.866115    2.839513

 Multiplicity           Mult            ....    1
 Number of Electrons    NEL             ....   18
 Basis Dimension        Dim             ....  172

ORBITAL ENERGIES
----------------

  NO   OCC          E(Eh)            E(eV)
   0   2.0000     -19.231576      -523.3178
   1   2.0000     -10.313207      -280.6366
   2   2.0000      -1.138405       -30.9776
   3   2.0000      -0.799504       -21.7556
   4   2.0000      -0.615432       -16.7468
   5   2.0000      -0.536416       -14.5966
   6   2.0000      -0.527335       -14.3495
   7   2.0000      -0.436145       -11.8681
   8   2.0000      -0.376094       -10.2340
   9   0.0000       0.080392         2.1876
  10   0.0000       0.113735         3.0949
  11   0.0000       0.148193         4.0325
  12   0.0000       0.169284         4.6064
  13   0.0000       0.194069         5.2809

MULLIKEN ATOMIC CHARGES
-----------------------
   0 C :   -0.000003
   1 O :   -0.000003
   2 H :   -0.000027
   3 H :   -0.000000
   4 H :    0.000001
   5 H :   -0.000000
   6 C :   -0.169241
   7 O :   -0.469104
   8 H :    0.314454
   9 H :    0.117723
  10 H :    0.101193
  11 H :    0.105008
Sum of atomic charges:   -0.0000000

LOEWDIN ATOMIC CHARGES
----------------------
   0 C :   -0.000002
   1 O :   -0.000022
   2 H :   -0.000036
   3 H :   -0.000000
   4 H :   -0.000000
   5 H :   -0.000000
   6 C :   -0.383543
   7 O :   -0.070856
   8 H :    0.158678
   9 H :    0.107323
  10 H :    0.096909
  11 H :    0.091550

  Mayer bond orders larger than 0.1
B(  6-C ,  7-O ) :   1.0096 B(  6-C ,  9-H ) :   0.9760 B(  6-C , 10-H ) :   0.9804
B(  6-C , 11-H ) :   0.9713 B(  7-O ,  8-H ) :   0.9029

Dispersion correction           -0.000259462
FINAL SINGLE POINT ENERGY      -115.734866669253

DIPOLE MOMENT
-------------
                                X             Y             Z
Electronic contribution:     -1.73020       0.77230      -0.42641
Nuclear contribution   :      2.34413      -0.43710       0.50361
                        -----------------------------------------
Total Dipole Moment    :      0.61393       0.33520       0.07719
                        -----------------------------------------
Magnitude (a.u.)       :      0.70373
Magnitude (Debye)      :      1.78873

Rotational constants in cm-1:     4.469421     0.815275     0.785291
Rotational constants in MHz : 133989.881560 24441.341533 23542.423251

                             ****ORCA TERMINATED NORMALLY****
TOTAL RUN TIME: 0 days 0 hours 6 minutes 2 seconds 418 msec
