                         Program Version 4.1.2  - RELEASE  -
|  1> #Run DFT-D3 single point of the dimer
|  2> ! wB97X-D3 def2-TZVP TIGHTSCF CHELPG PMODEL PAL8
|  3>
|  4> %base "17-135_DFT_AB"
|  5>
|  6> %scf
|  7> MaxIter 1000
|  8> end
|  9>
| 10> * xyz 0 1
| 11>   C                      -10.389428           -5.668474            0.886552
| 12>   O                      -9.427594            -5.129751            -0.008684
| 13>   H                      -8.619964            -5.665520            0.023088
| 14>   H                      -11.126881           -4.947132            1.176537
| 15>   H                      -10.780607           -6.594603            0.450729
| 16>   H                      -9.779254            -5.947587            1.825181
| 17>   C                      -6.565968            -3.021015            -0.286961
| 18>   O                      -7.870317            -2.524230            -0.457635
| 19>   H                      -8.464050            -3.263168            -0.428365
| 20>   H                      -6.375784            -3.424887            0.682798
| 21>   H                      -6.358553            -3.812381            -1.019314
| 22>   H                      -5.921900            -2.184792            -0.507281
| 23> *
| 24>
| 25> #Run DFT-D3 single point of the molecule with dimer basis set
| 26> $new_job
| 27> %base "17-135_DFT_A"
| 28> ! wB97X-D3 def2-TZVP TIGHTSCF CHELPG PMODEL
| 29>
| 30> %scf
| 31> MaxIter 1000
| 32> end
| 33>
| 34> * xyz 0 1
| 35>   C                      -10.389428           -5.668474            0.886552
| 36>   O                      -9.427594            -5.129751            -0.008684
| 37>   H                      -8.619964            -5.665520            0.023088
| 38>   H                      -11.126881           -4.947132            1.176537
| 39>   H                      -10.780607           -6.594603            0.450729
| 40>   H                      -9.779254            -5.947587            1.825181
| 41>   C                    : -6.565968            -3.021015            -0.286961
| 42>   O                    : -7.870317            -2.524230            -0.457635
| 43>   H                    : -8.464050            -3.263168            -0.428365
| 44>   H                    : -6.375784            -3.424887            0.682798
| 45>   H                    : -6.358553            -3.812381            -1.019314
| 46>   H                    : -5.921900            -2.184792            -0.507281
| 47> *
| 48>
| 49> #Run DFT-D3 single point of the particle with dimer basis set
| 50> $new_job
| 51> %base "17-135_DFT_B"
| 52> ! wB97X-D3 def2-TZVP TIGHTSCF CHELPG PMODEL
| 53>
| 54> %scf
| 55> MaxIter 1000
| 56> end
| 57>
| 58> * xyz 0 1
| 59>   C                    : -10.389428           -5.668474            0.886552
| 60>   O                    : -9.427594            -5.129751            -0.008684
| 61>   H                    : -8.619964            -5.665520            0.023088
| 62>   H                    : -11.126881           -4.947132            1.176537
| 63>   H                    : -10.780607           -6.594603            0.450729
| 64>   H                    : -9.779254            -5.947587            1.825181
| 65>   C                      -6.565968            -3.021015            -0.286961
| 66>   O                      -7.870317            -2.524230            -0.457635
| 67>   H                      -8.464050            -3.263168            -0.428365
| 68>   H                      -6.375784            -3.424887            0.682798
| 69>   H                      -6.358553            -3.812381            -1.019314
| 70>   H                      -5.921900            -2.184792            -0.507281
| 71> *
| 72>
| 73>                          ****END OF INPUT****
 Total Charge           Charge          ....    0
 Multiplicity           Mult            ....    1
 Number of Electrons    NEL             ....   36
Dispersion correction           -0.001639694
FINAL SINGLE POINT ENERGY      -231.474717205170
Dispersion correction           -0.000226562
FINAL SINGLE POINT ENERGY      -115.731440628123

CARTESIAN COORDINATES (ANGSTROEM)
---------------------------------
  C    -10.389428   -5.668474    0.886552
  O     -9.427594   -5.129751   -0.008684
  H     -8.619964   -5.665520    0.023088
  H    -11.126881   -4.947132    1.176537
  H    -10.780607   -6.594603    0.450729
  H     -9.779254   -5.947587    1.825181
  C     -6.565968   -3.021015   -0.286961
  O     -7.870317   -2.524230   -0.457635
  H     -8.464050   -3.263168   -0.428365
  H     -6.375784   -3.424887    0.682798
  H     -6.358553   -3.812381   -1.019314
  H     -5.921900   -2.184792   -0.507281

 Multiplicity           Mult            ....    1
 Number of Electrons    NEL             ....   18
 Basis Dimension        Dim             ....  172

ORBITAL ENERGIES
----------------

  NO   OCC          E(Eh)            E(eV)
   0   2.0000     -19.227992      -523.2203
   1   2.0000     -10.307607      -280.4842
   2   2.0000      -1.140757       -31.0416
   3   2.0000      -0.798169       -21.7193
   4   2.0000      -0.616175       -16.7670
   5   2.0000      -0.544567       -14.8184
   6   2.0000      -0.526081       -14.3154
   7   2.0000      -0.437169       -11.8960
   8   2.0000      -0.373906       -10.1745
   9   0.0000       0.070126         1.9082
  10   0.0000       0.126924         3.4538
  11   0.0000       0.153122         4.1667
  12   0.0000       0.177850         4.8395
  13   0.0000       0.188054         5.1172

MULLIKEN ATOMIC CHARGES
-----------------------
   0 C :   -0.001868
   1 O :   -0.002960
   2 H :    0.000205
   3 H :    0.000178
   4 H :    0.000004
   5 H :    0.000112
   6 C :   -0.158927
   7 O :   -0.469526
   8 H :    0.309216
   9 H :    0.101824
  10 H :    0.098918
  11 H :    0.122824
Sum of atomic charges:    0.0000000

LOEWDIN ATOMIC CHARGES
----------------------
   0 C :   -0.001342
   1 O :   -0.012255
   2 H :   -0.001752
   3 H :   -0.000069
   4 H :   -0.000046
   5 H :   -0.000028
   6 C :   -0.382987
   7 O :   -0.058500
   8 H :    0.163789
   9 H :    0.088541
  10 H :    0.096094
  11 H :    0.108555

  Mayer bond orders larger than 0.1
B(  6-C ,  7-O ) :   0.9898 B(  6-C ,  9-H ) :   0.9706 B(  6-C , 10-H ) :   0.9819
B(  6-C , 11-H ) :   0.9772 B(  7-O ,  8-H ) :   0.9125

Dispersion correction           -0.000224002
FINAL SINGLE POINT ENERGY      -115.736439339726

DIPOLE MOMENT
-------------
                                X             Y             Z
Electronic contribution:     -1.59164       0.76249      -0.13570
Nuclear contribution   :      1.73243      -1.41994       0.21664
                        -----------------------------------------
Total Dipole Moment    :      0.14079      -0.65745       0.08094
                        -----------------------------------------
Magnitude (a.u.)       :      0.67721
Magnitude (Debye)      :      1.72132

Rotational constants in cm-1:     4.345829     0.848471     0.815834
Rotational constants in MHz : 130284.663838 25436.535620 24458.101378

                             ****ORCA TERMINATED NORMALLY****
TOTAL RUN TIME: 0 days 0 hours 1 minutes 13 seconds 393 msec
