                         Program Version 4.1.2  - RELEASE  -
|  1> #Run DFT-D3 single point of the dimer
|  2> ! wB97X-D3 def2-TZVP TIGHTSCF CHELPG PMODEL PAL8
|  3>
|  4> %base "5-97_DFT_AB"
|  5>
|  6> %scf
|  7> MaxIter 1000
|  8> end
|  9>
| 10> * xyz 0 1
| 11>   C                      9.518140             -9.620616            -3.107383
| 12>   O                      10.506839            -9.162423            -4.033828
| 13>   H                      10.192911            -8.597301            -4.716816
| 14>   H                      8.766802             -8.855435            -2.834577
| 15>   H                      8.944407             -10.443229           -3.539903
| 16>   H                      9.859461             -9.901562            -2.110812
| 17>   C                      6.668036             -5.455190            -1.030907
| 18>   O                      6.837075             -4.507155            -0.019168
| 19>   H                      7.422544             -4.843241            0.644759
| 20>   H                      7.637286             -5.706751            -1.547188
| 21>   H                      6.155965             -6.319616            -0.667322
| 22>   H                      6.026018             -5.035849            -1.862106
| 23> *
| 24>
| 25> #Run DFT-D3 single point of the molecule with dimer basis set
| 26> $new_job
| 27> %base "5-97_DFT_A"
| 28> ! wB97X-D3 def2-TZVP TIGHTSCF CHELPG PMODEL
| 29>
| 30> %scf
| 31> MaxIter 1000
| 32> end
| 33>
| 34> * xyz 0 1
| 35>   C                      9.518140             -9.620616            -3.107383
| 36>   O                      10.506839            -9.162423            -4.033828
| 37>   H                      10.192911            -8.597301            -4.716816
| 38>   H                      8.766802             -8.855435            -2.834577
| 39>   H                      8.944407             -10.443229           -3.539903
| 40>   H                      9.859461             -9.901562            -2.110812
| 41>   C                    : 6.668036             -5.455190            -1.030907
| 42>   O                    : 6.837075             -4.507155            -0.019168
| 43>   H                    : 7.422544             -4.843241            0.644759
| 44>   H                    : 7.637286             -5.706751            -1.547188
| 45>   H                    : 6.155965             -6.319616            -0.667322
| 46>   H                    : 6.026018             -5.035849            -1.862106
| 47> *
| 48>
| 49> #Run DFT-D3 single point of the particle with dimer basis set
| 50> $new_job
| 51> %base "5-97_DFT_B"
| 52> ! wB97X-D3 def2-TZVP TIGHTSCF CHELPG PMODEL
| 53>
| 54> %scf
| 55> MaxIter 1000
| 56> end
| 57>
| 58> * xyz 0 1
| 59>   C                    : 9.518140             -9.620616            -3.107383
| 60>   O                    : 10.506839            -9.162423            -4.033828
| 61>   H                    : 10.192911            -8.597301            -4.716816
| 62>   H                    : 8.766802             -8.855435            -2.834577
| 63>   H                    : 8.944407             -10.443229           -3.539903
| 64>   H                    : 9.859461             -9.901562            -2.110812
| 65>   C                      6.668036             -5.455190            -1.030907
| 66>   O                      6.837075             -4.507155            -0.019168
| 67>   H                      7.422544             -4.843241            0.644759
| 68>   H                      7.637286             -5.706751            -1.547188
| 69>   H                      6.155965             -6.319616            -0.667322
| 70>   H                      6.026018             -5.035849            -1.862106
| 71> *
| 72>
| 73>                          ****END OF INPUT****
 Total Charge           Charge          ....    0
 Multiplicity           Mult            ....    1
 Number of Electrons    NEL             ....   36
Dispersion correction           -0.000739801
FINAL SINGLE POINT ENERGY      -231.464883042036
Dispersion correction           -0.000278238
FINAL SINGLE POINT ENERGY      -115.730248260475

CARTESIAN COORDINATES (ANGSTROEM)
---------------------------------
  C      9.518140   -9.620616   -3.107383
  O     10.506839   -9.162423   -4.033828
  H     10.192911   -8.597301   -4.716816
  H      8.766802   -8.855435   -2.834577
  H      8.944407  -10.443229   -3.539903
  H      9.859461   -9.901562   -2.110812
  C      6.668036   -5.455190   -1.030907
  O      6.837075   -4.507155   -0.019168
  H      7.422544   -4.843241    0.644759
  H      7.637286   -5.706751   -1.547188
  H      6.155965   -6.319616   -0.667322
  H      6.026018   -5.035849   -1.862106

 Multiplicity           Mult            ....    1
 Number of Electrons    NEL             ....   18
 Basis Dimension        Dim             ....  172

ORBITAL ENERGIES
----------------

  NO   OCC          E(Eh)            E(eV)
   0   2.0000     -19.228497      -523.2340
   1   2.0000     -10.315754      -280.7059
   2   2.0000      -1.143007       -31.1028
   3   2.0000      -0.794006       -21.6060
   4   2.0000      -0.613233       -16.6869
   5   2.0000      -0.549082       -14.9413
   6   2.0000      -0.525402       -14.2969
   7   2.0000      -0.424054       -11.5391
   8   2.0000      -0.375201       -10.2097
   9   0.0000       0.081973         2.2306
  10   0.0000       0.118447         3.2231
  11   0.0000       0.146232         3.9792
  12   0.0000       0.160616         4.3706
  13   0.0000       0.185573         5.0497

MULLIKEN ATOMIC CHARGES
-----------------------
   0 C :    0.000273
   1 O :   -0.000003
   2 H :   -0.000006
   3 H :   -0.000619
   4 H :   -0.000017
   5 H :   -0.000021
   6 C :   -0.158529
   7 O :   -0.470512
   8 H :    0.313953
   9 H :    0.095640
  10 H :    0.104776
  11 H :    0.115065
Sum of atomic charges:    0.0000000

LOEWDIN ATOMIC CHARGES
----------------------
   0 C :   -0.000068
   1 O :   -0.000001
   2 H :   -0.000002
   3 H :   -0.000334
   4 H :   -0.000001
   5 H :   -0.000002
   6 C :   -0.403650
   7 O :   -0.059750
   8 H :    0.161126
   9 H :    0.098768
  10 H :    0.088008
  11 H :    0.115907

  Mayer bond orders larger than 0.1
B(  6-C ,  7-O ) :   1.0029 B(  6-C ,  9-H ) :   0.9766 B(  6-C , 10-H ) :   0.9768
B(  6-C , 11-H ) :   0.9707 B(  7-O ,  8-H ) :   0.8994

Dispersion correction           -0.000243364
FINAL SINGLE POINT ENERGY      -115.734480806518

DIPOLE MOMENT
-------------
                                X             Y             Z
Electronic contribution:      0.14617       1.25720       1.35827
Nuclear contribution   :      0.15144      -1.83881      -1.32127
                        -----------------------------------------
Total Dipole Moment    :      0.29761      -0.58161       0.03700
                        -----------------------------------------
Magnitude (a.u.)       :      0.65438
Magnitude (Debye)      :      1.66330

Rotational constants in cm-1:     4.280622     0.837569     0.814355
Rotational constants in MHz : 128329.829200 25109.677417 24413.742674

                             ****ORCA TERMINATED NORMALLY****
TOTAL RUN TIME: 0 days 0 hours 0 minutes 36 seconds 991 msec
