                         Program Version 4.1.2  - RELEASE  -
|  1> #Run DFT-D3 single point of the dimer
|  2> ! wB97X-D3 def2-TZVP TIGHTSCF CHELPG PMODEL PAL8
|  3>
|  4> %base "9-67_DFT_AB"
|  5>
|  6> %scf
|  7> MaxIter 1000
|  8> end
|  9>
| 10> * xyz 0 1
| 11>   C                      8.125646             0.140868             0.205538
| 12>   O                      9.020085             0.985751             0.913121
| 13>   H                      8.829592             1.132982             1.835882
| 14>   H                      7.075105             0.521568             0.141395
| 15>   H                      8.639908             -0.057721            -0.755773
| 16>   H                      8.148752             -0.882839            0.640323
| 17>   C                      7.234744             1.137100             3.646333
| 18>   O                      8.644821             1.312440             3.660855
| 19>   H                      8.815920             1.757779             4.445385
| 20>   H                      6.947070             0.669658             2.727372
| 21>   H                      6.962892             0.448695             4.396575
| 22>   H                      6.738247             2.099635             3.923597
| 23> *
| 24>
| 25> #Run DFT-D3 single point of the molecule with dimer basis set
| 26> $new_job
| 27> %base "9-67_DFT_A"
| 28> ! wB97X-D3 def2-TZVP TIGHTSCF CHELPG PMODEL
| 29>
| 30> %scf
| 31> MaxIter 1000
| 32> end
| 33>
| 34> * xyz 0 1
| 35>   C                      8.125646             0.140868             0.205538
| 36>   O                      9.020085             0.985751             0.913121
| 37>   H                      8.829592             1.132982             1.835882
| 38>   H                      7.075105             0.521568             0.141395
| 39>   H                      8.639908             -0.057721            -0.755773
| 40>   H                      8.148752             -0.882839            0.640323
| 41>   C                    : 7.234744             1.137100             3.646333
| 42>   O                    : 8.644821             1.312440             3.660855
| 43>   H                    : 8.815920             1.757779             4.445385
| 44>   H                    : 6.947070             0.669658             2.727372
| 45>   H                    : 6.962892             0.448695             4.396575
| 46>   H                    : 6.738247             2.099635             3.923597
| 47> *
| 48>
| 49> #Run DFT-D3 single point of the particle with dimer basis set
| 50> $new_job
| 51> %base "9-67_DFT_B"
| 52> ! wB97X-D3 def2-TZVP TIGHTSCF CHELPG PMODEL
| 53>
| 54> %scf
| 55> MaxIter 1000
| 56> end
| 57>
| 58> * xyz 0 1
| 59>   C                    : 8.125646             0.140868             0.205538
| 60>   O                    : 9.020085             0.985751             0.913121
| 61>   H                    : 8.829592             1.132982             1.835882
| 62>   H                    : 7.075105             0.521568             0.141395
| 63>   H                    : 8.639908             -0.057721            -0.755773
| 64>   H                    : 8.148752             -0.882839            0.640323
| 65>   C                      7.234744             1.137100             3.646333
| 66>   O                      8.644821             1.312440             3.660855
| 67>   H                      8.815920             1.757779             4.445385
| 68>   H                      6.947070             0.669658             2.727372
| 69>   H                      6.962892             0.448695             4.396575
| 70>   H                      6.738247             2.099635             3.923597
| 71> *
| 72>
| 73>                          ****END OF INPUT****
 Total Charge           Charge          ....    0
 Multiplicity           Mult            ....    1
 Number of Electrons    NEL             ....   36
Dispersion correction           -0.001998601
FINAL SINGLE POINT ENERGY      -231.467951486138
Dispersion correction           -0.000272531
FINAL SINGLE POINT ENERGY      -115.732169846766

CARTESIAN COORDINATES (ANGSTROEM)
---------------------------------
  C      8.125646    0.140868    0.205538
  O      9.020085    0.985751    0.913121
  H      8.829592    1.132982    1.835882
  H      7.075105    0.521568    0.141395
  H      8.639908   -0.057721   -0.755773
  H      8.148752   -0.882839    0.640323
  C      7.234744    1.137100    3.646333
  O      8.644821    1.312440    3.660855
  H      8.815920    1.757779    4.445385
  H      6.947070    0.669658    2.727372
  H      6.962892    0.448695    4.396575
  H      6.738247    2.099635    3.923597

 Multiplicity           Mult            ....    1
 Number of Electrons    NEL             ....   18
 Basis Dimension        Dim             ....  172

ORBITAL ENERGIES
----------------

  NO   OCC          E(Eh)            E(eV)
   0   2.0000     -19.224746      -523.1319
   1   2.0000     -10.309865      -280.5457
   2   2.0000      -1.144478       -31.1428
   3   2.0000      -0.801200       -21.8018
   4   2.0000      -0.615274       -16.7425
   5   2.0000      -0.544517       -14.8171
   6   2.0000      -0.528463       -14.3802
   7   2.0000      -0.444018       -12.0823
   8   2.0000      -0.371948       -10.1212
   9   0.0000       0.095221         2.5911
  10   0.0000       0.123928         3.3723
  11   0.0000       0.159028         4.3274
  12   0.0000       0.193232         5.2581
  13   0.0000       0.195803         5.3281

MULLIKEN ATOMIC CHARGES
-----------------------
   0 C :    0.002612
   1 O :    0.001012
   2 H :   -0.009752
   3 H :   -0.000937
   4 H :    0.000058
   5 H :   -0.000577
   6 C :   -0.161126
   7 O :   -0.453159
   8 H :    0.296800
   9 H :    0.118154
  10 H :    0.106015
  11 H :    0.100901
Sum of atomic charges:   -0.0000000

LOEWDIN ATOMIC CHARGES
----------------------
   0 C :   -0.006781
   1 O :   -0.006112
   2 H :   -0.045619
   3 H :   -0.001532
   4 H :   -0.000040
   5 H :   -0.000453
   6 C :   -0.356363
   7 O :   -0.023661
   8 H :    0.139641
   9 H :    0.110877
  10 H :    0.087842
  11 H :    0.102201

  Mayer bond orders larger than 0.1
B(  6-C ,  7-O ) :   0.9801 B(  6-C ,  9-H ) :   0.9821 B(  6-C , 10-H ) :   0.9736
B(  6-C , 11-H ) :   0.9824 B(  7-O ,  8-H ) :   0.9137

Dispersion correction           -0.000210199
FINAL SINGLE POINT ENERGY      -115.730920697933

DIPOLE MOMENT
-------------
                                X             Y             Z
Electronic contribution:      1.74376       0.15743      -0.20246
Nuclear contribution   :     -2.20128       0.02304       0.71681
                        -----------------------------------------
Total Dipole Moment    :     -0.45752       0.18048       0.51435
                        -----------------------------------------
Magnitude (a.u.)       :      0.71166
Magnitude (Debye)      :      1.80889

Rotational constants in cm-1:     4.344861     0.845569     0.804371
Rotational constants in MHz : 130255.667527 25349.529864 24114.438734

                             ****ORCA TERMINATED NORMALLY****
TOTAL RUN TIME: 0 days 0 hours 0 minutes 48 seconds 166 msec
