                         Program Version 4.1.2  - RELEASE  -
|  1> #Run DFT-D3 single point of the dimer
|  2> ! wB97X-D3 def2-TZVP TIGHTSCF CHELPG PMODEL PAL8
|  3>
|  4> %base "1-106_DFT_AB"
|  5>
|  6> %scf
|  7> MaxIter 1000
|  8> end
|  9>
| 10> * xyz 0 1
| 11>   C                      -0.021919            8.009453             2.783988
| 12>   O                      -0.528219            7.199774             3.833651
| 13>   H                      0.125578             6.504699             4.084652
| 14>   H                      0.915588             8.444604             3.152632
| 15>   H                      0.145282             7.447361             1.830952
| 16>   H                      -0.773289            8.872872             2.476492
| 17>   C                      -1.762520            6.941765             7.397373
| 18>   O                      -0.721336            7.823478             7.094080
| 19>   H                      -0.933814            8.336408             6.325097
| 20>   H                      -2.531944            7.407656             8.006269
| 21>   H                      -2.197197            6.657989             6.428430
| 22>   H                      -1.425565            5.995266             7.871045
| 23> *
| 24>
| 25> #Run DFT-D3 single point of the molecule with dimer basis set
| 26> $new_job
| 27> %base "1-106_DFT_A"
| 28> ! wB97X-D3 def2-TZVP TIGHTSCF CHELPG PMODEL
| 29>
| 30> %scf
| 31> MaxIter 1000
| 32> end
| 33>
| 34> * xyz 0 1
| 35>   C                      -0.021919            8.009453             2.783988
| 36>   O                      -0.528219            7.199774             3.833651
| 37>   H                      0.125578             6.504699             4.084652
| 38>   H                      0.915588             8.444604             3.152632
| 39>   H                      0.145282             7.447361             1.830952
| 40>   H                      -0.773289            8.872872             2.476492
| 41>   C                    : -1.762520            6.941765             7.397373
| 42>   O                    : -0.721336            7.823478             7.094080
| 43>   H                    : -0.933814            8.336408             6.325097
| 44>   H                    : -2.531944            7.407656             8.006269
| 45>   H                    : -2.197197            6.657989             6.428430
| 46>   H                    : -1.425565            5.995266             7.871045
| 47> *
| 48>
| 49> #Run DFT-D3 single point of the particle with dimer basis set
| 50> $new_job
| 51> %base "1-106_DFT_B"
| 52> ! wB97X-D3 def2-TZVP TIGHTSCF CHELPG PMODEL
| 53>
| 54> %scf
| 55> MaxIter 1000
| 56> end
| 57>
| 58> * xyz 0 1
| 59>   C                    : -0.021919            8.009453             2.783988
| 60>   O                    : -0.528219            7.199774             3.833651
| 61>   H                    : 0.125578             6.504699             4.084652
| 62>   H                    : 0.915588             8.444604             3.152632
| 63>   H                    : 0.145282             7.447361             1.830952
| 64>   H                    : -0.773289            8.872872             2.476492
| 65>   C                      -1.762520            6.941765             7.397373
| 66>   O                      -0.721336            7.823478             7.094080
| 67>   H                      -0.933814            8.336408             6.325097
| 68>   H                      -2.531944            7.407656             8.006269
| 69>   H                      -2.197197            6.657989             6.428430
| 70>   H                      -1.425565            5.995266             7.871045
| 71> *
| 72>
| 73>                          ****END OF INPUT****
 Total Charge           Charge          ....    0
 Multiplicity           Mult            ....    1
 Number of Electrons    NEL             ....   36
Dispersion correction           -0.001590307
FINAL SINGLE POINT ENERGY      -231.467871932109
Dispersion correction           -0.000261686
FINAL SINGLE POINT ENERGY      -115.729435051993

CARTESIAN COORDINATES (ANGSTROEM)
---------------------------------
  C     -0.021919    8.009453    2.783988
  O     -0.528219    7.199774    3.833651
  H      0.125578    6.504699    4.084652
  H      0.915588    8.444604    3.152632
  H      0.145282    7.447361    1.830952
  H     -0.773289    8.872872    2.476492
  C     -1.762520    6.941765    7.397373
  O     -0.721336    7.823478    7.094080
  H     -0.933814    8.336408    6.325097
  H     -2.531944    7.407656    8.006269
  H     -2.197197    6.657989    6.428430
  H     -1.425565    5.995266    7.871045

 Multiplicity           Mult            ....    1
 Number of Electrons    NEL             ....   18
 Basis Dimension        Dim             ....  172

ORBITAL ENERGIES
----------------

  NO   OCC          E(Eh)            E(eV)
   0   2.0000     -19.226955      -523.1920
   1   2.0000     -10.314166      -280.6627
   2   2.0000      -1.142090       -31.0778
   3   2.0000      -0.795147       -21.6371
   4   2.0000      -0.614561       -16.7230
   5   2.0000      -0.546658       -14.8753
   6   2.0000      -0.533290       -14.5116
   7   2.0000      -0.423525       -11.5247
   8   2.0000      -0.373461       -10.1624
   9   0.0000       0.074580         2.0294
  10   0.0000       0.124722         3.3939
  11   0.0000       0.151953         4.1348
  12   0.0000       0.167869         4.5680
  13   0.0000       0.189531         5.1574

MULLIKEN ATOMIC CHARGES
-----------------------
   0 C :   -0.000811
   1 O :   -0.001914
   2 H :   -0.001254
   3 H :   -0.000066
   4 H :   -0.000016
   5 H :    0.000053
   6 C :   -0.153617
   7 O :   -0.475798
   8 H :    0.317888
   9 H :    0.105914
  10 H :    0.094981
  11 H :    0.114640
Sum of atomic charges:   -0.0000000

LOEWDIN ATOMIC CHARGES
----------------------
   0 C :   -0.000723
   1 O :   -0.003457
   2 H :   -0.001593
   3 H :   -0.000071
   4 H :   -0.000017
   5 H :   -0.000020
   6 C :   -0.393929
   7 O :   -0.060570
   8 H :    0.162050
   9 H :    0.092604
  10 H :    0.096344
  11 H :    0.109382

  Mayer bond orders larger than 0.1
B(  6-C ,  7-O ) :   0.9958 B(  6-C ,  9-H ) :   0.9755 B(  6-C , 10-H ) :   0.9927
B(  6-C , 11-H ) :   0.9700 B(  7-O ,  8-H ) :   0.8989

Dispersion correction           -0.000232180
FINAL SINGLE POINT ENERGY      -115.733816193697

DIPOLE MOMENT
-------------
                                X             Y             Z
Electronic contribution:      1.42480       1.10425      -0.17065
Nuclear contribution   :     -1.97474      -1.12901      -0.21971
                        -----------------------------------------
Total Dipole Moment    :     -0.54995      -0.02476      -0.39035
                        -----------------------------------------
Magnitude (a.u.)       :      0.67486
Magnitude (Debye)      :      1.71535

Rotational constants in cm-1:     4.321993     0.843595     0.817095
Rotational constants in MHz : 129570.087282 25290.336604 24495.884418

                             ****ORCA TERMINATED NORMALLY****
TOTAL RUN TIME: 0 days 0 hours 4 minutes 38 seconds 881 msec
