                         Program Version 4.1.2  - RELEASE  -
|  1> #Run DFT-D3 single point of the dimer
|  2> ! wB97X-D3 def2-TZVP TIGHTSCF CHELPG PMODEL PAL8
|  3>
|  4> %base "20-196_DFT_AB"
|  5>
|  6> %scf
|  7> MaxIter 1000
|  8> end
|  9>
| 10> * xyz 0 1
| 11>   C                      4.454285             8.442810             -10.203848
| 12>   O                      4.742119             7.468918             -9.203027
| 13>   H                      5.619634             7.120077             -9.380963
| 14>   H                      3.502124             8.966420             -10.208412
| 15>   H                      5.283847             9.216820             -10.153765
| 16>   H                      4.534951             7.926899             -11.162787
| 17>   C                      3.870062             9.588237             -6.431992
| 18>   O                      4.333502             8.226179             -6.452210
| 19>   H                      4.139159             7.860522             -7.309450
| 20>   H                      4.710507             10.342658            -6.567665
| 21>   H                      3.127605             9.907514             -7.176449
| 22>   H                      3.433877             9.691790             -5.417177
| 23> *
| 24>
| 25> #Run DFT-D3 single point of the molecule with dimer basis set
| 26> $new_job
| 27> %base "20-196_DFT_A"
| 28> ! wB97X-D3 def2-TZVP TIGHTSCF CHELPG PMODEL
| 29>
| 30> %scf
| 31> MaxIter 1000
| 32> end
| 33>
| 34> * xyz 0 1
| 35>   C                      4.454285             8.442810             -10.203848
| 36>   O                      4.742119             7.468918             -9.203027
| 37>   H                      5.619634             7.120077             -9.380963
| 38>   H                      3.502124             8.966420             -10.208412
| 39>   H                      5.283847             9.216820             -10.153765
| 40>   H                      4.534951             7.926899             -11.162787
| 41>   C                    : 3.870062             9.588237             -6.431992
| 42>   O                    : 4.333502             8.226179             -6.452210
| 43>   H                    : 4.139159             7.860522             -7.309450
| 44>   H                    : 4.710507             10.342658            -6.567665
| 45>   H                    : 3.127605             9.907514             -7.176449
| 46>   H                    : 3.433877             9.691790             -5.417177
| 47> *
| 48>
| 49> #Run DFT-D3 single point of the particle with dimer basis set
| 50> $new_job
| 51> %base "20-196_DFT_B"
| 52> ! wB97X-D3 def2-TZVP TIGHTSCF CHELPG PMODEL
| 53>
| 54> %scf
| 55> MaxIter 1000
| 56> end
| 57>
| 58> * xyz 0 1
| 59>   C                    : 4.454285             8.442810             -10.203848
| 60>   O                    : 4.742119             7.468918             -9.203027
| 61>   H                    : 5.619634             7.120077             -9.380963
| 62>   H                    : 3.502124             8.966420             -10.208412
| 63>   H                    : 5.283847             9.216820             -10.153765
| 64>   H                    : 4.534951             7.926899             -11.162787
| 65>   C                      3.870062             9.588237             -6.431992
| 66>   O                      4.333502             8.226179             -6.452210
| 67>   H                      4.139159             7.860522             -7.309450
| 68>   H                      4.710507             10.342658            -6.567665
| 69>   H                      3.127605             9.907514             -7.176449
| 70>   H                      3.433877             9.691790             -5.417177
| 71> *
| 72>
| 73>                          ****END OF INPUT****
 Total Charge           Charge          ....    0
 Multiplicity           Mult            ....    1
 Number of Electrons    NEL             ....   36
Dispersion correction           -0.001945052
FINAL SINGLE POINT ENERGY      -231.469166718045
Dispersion correction           -0.000231906
FINAL SINGLE POINT ENERGY      -115.729837623041

CARTESIAN COORDINATES (ANGSTROEM)
---------------------------------
  C      4.454285    8.442810  -10.203848
  O      4.742119    7.468918   -9.203027
  H      5.619634    7.120077   -9.380963
  H      3.502124    8.966420  -10.208412
  H      5.283847    9.216820  -10.153765
  H      4.534951    7.926899  -11.162787
  C      3.870062    9.588237   -6.431992
  O      4.333502    8.226179   -6.452210
  H      4.139159    7.860522   -7.309450
  H      4.710507   10.342658   -6.567665
  H      3.127605    9.907514   -7.176449
  H      3.433877    9.691790   -5.417177

 Multiplicity           Mult            ....    1
 Number of Electrons    NEL             ....   18
 Basis Dimension        Dim             ....  172

ORBITAL ENERGIES
----------------

  NO   OCC          E(Eh)            E(eV)
   0   2.0000     -19.233328      -523.3655
   1   2.0000     -10.321934      -280.8741
   2   2.0000      -1.132380       -30.8136
   3   2.0000      -0.793313       -21.5871
   4   2.0000      -0.613495       -16.6940
   5   2.0000      -0.531377       -14.4595
   6   2.0000      -0.515102       -14.0166
   7   2.0000      -0.442050       -12.0288
   8   2.0000      -0.374504       -10.1908
   9   0.0000       0.069748         1.8979
  10   0.0000       0.135969         3.6999
  11   0.0000       0.139624         3.7994
  12   0.0000       0.165690         4.5087
  13   0.0000       0.182236         4.9589

MULLIKEN ATOMIC CHARGES
-----------------------
   0 C :   -0.002321
   1 O :   -0.004455
   2 H :   -0.000811
   3 H :    0.000025
   4 H :    0.000089
   5 H :   -0.000057
   6 C :   -0.186761
   7 O :   -0.465858
   8 H :    0.312387
   9 H :    0.103707
  10 H :    0.116748
  11 H :    0.127306
Sum of atomic charges:    0.0000000

LOEWDIN ATOMIC CHARGES
----------------------
   0 C :   -0.004166
   1 O :   -0.017802
   2 H :   -0.001629
   3 H :   -0.000395
   4 H :   -0.000145
   5 H :   -0.000094
   6 C :   -0.378924
   7 O :   -0.076208
   8 H :    0.166999
   9 H :    0.103797
  10 H :    0.097389
  11 H :    0.111178

  Mayer bond orders larger than 0.1
B(  6-C ,  7-O ) :   0.9941 B(  6-C ,  9-H ) :   0.9680 B(  6-C , 10-H ) :   0.9693
B(  6-C , 11-H ) :   0.9812 B(  7-O ,  8-H ) :   0.9064

Dispersion correction           -0.000281105
FINAL SINGLE POINT ENERGY      -115.732529186584

DIPOLE MOMENT
-------------
                                X             Y             Z
Electronic contribution:      0.58560      -1.78443       0.02683
Nuclear contribution   :     -0.92159       2.09092      -0.57108
                        -----------------------------------------
Total Dipole Moment    :     -0.33598       0.30648      -0.54426
                        -----------------------------------------
Magnitude (a.u.)       :      0.70925
Magnitude (Debye)      :      1.80276

Rotational constants in cm-1:     4.232891     0.799041     0.773290
Rotational constants in MHz : 126898.870653 23954.634385 23182.645896

                             ****ORCA TERMINATED NORMALLY****
TOTAL RUN TIME: 0 days 0 hours 1 minutes 8 seconds 649 msec
