                         Program Version 4.1.2  - RELEASE  -
|  1> #Run DFT-D3 single point of the dimer
|  2> ! wB97X-D3 def2-TZVP TIGHTSCF CHELPG PMODEL PAL8
|  3>
|  4> %base "22-145_DFT_AB"
|  5>
|  6> %scf
|  7> MaxIter 1000
|  8> end
|  9>
| 10> * xyz 0 1
| 11>   C                      -7.213626            3.384994             10.819294
| 12>   O                      -6.871393            4.171338             11.892406
| 13>   H                      -6.898183            3.456101             12.542300
| 14>   H                      -6.335732            2.906768             10.264594
| 15>   H                      -7.908215            2.573688             11.116931
| 16>   H                      -7.828782            3.967057             10.125404
| 17>   C                      -2.384133            5.612888             10.250260
| 18>   O                      -2.876529            4.335479             10.740839
| 19>   H                      -3.130271            3.791132             9.947765
| 20>   H                      -3.259201            6.241876             10.017787
| 21>   H                      -1.742954            6.086604             10.965910
| 22>   H                      -1.794586            5.557124             9.331309
| 23> *
| 24>
| 25> #Run DFT-D3 single point of the molecule with dimer basis set
| 26> $new_job
| 27> %base "22-145_DFT_A"
| 28> ! wB97X-D3 def2-TZVP TIGHTSCF CHELPG PMODEL
| 29>
| 30> %scf
| 31> MaxIter 1000
| 32> end
| 33>
| 34> * xyz 0 1
| 35>   C                      -7.213626            3.384994             10.819294
| 36>   O                      -6.871393            4.171338             11.892406
| 37>   H                      -6.898183            3.456101             12.542300
| 38>   H                      -6.335732            2.906768             10.264594
| 39>   H                      -7.908215            2.573688             11.116931
| 40>   H                      -7.828782            3.967057             10.125404
| 41>   C                    : -2.384133            5.612888             10.250260
| 42>   O                    : -2.876529            4.335479             10.740839
| 43>   H                    : -3.130271            3.791132             9.947765
| 44>   H                    : -3.259201            6.241876             10.017787
| 45>   H                    : -1.742954            6.086604             10.965910
| 46>   H                    : -1.794586            5.557124             9.331309
| 47> *
| 48>
| 49> #Run DFT-D3 single point of the particle with dimer basis set
| 50> $new_job
| 51> %base "22-145_DFT_B"
| 52> ! wB97X-D3 def2-TZVP TIGHTSCF CHELPG PMODEL
| 53>
| 54> %scf
| 55> MaxIter 1000
| 56> end
| 57>
| 58> * xyz 0 1
| 59>   C                    : -7.213626            3.384994             10.819294
| 60>   O                    : -6.871393            4.171338             11.892406
| 61>   H                    : -6.898183            3.456101             12.542300
| 62>   H                    : -6.335732            2.906768             10.264594
| 63>   H                    : -7.908215            2.573688             11.116931
| 64>   H                    : -7.828782            3.967057             10.125404
| 65>   C                      -2.384133            5.612888             10.250260
| 66>   O                      -2.876529            4.335479             10.740839
| 67>   H                      -3.130271            3.791132             9.947765
| 68>   H                      -3.259201            6.241876             10.017787
| 69>   H                      -1.742954            6.086604             10.965910
| 70>   H                      -1.794586            5.557124             9.331309
| 71> *
| 72>
| 73>                          ****END OF INPUT****
 Total Charge           Charge          ....    0
 Multiplicity           Mult            ....    1
 Number of Electrons    NEL             ....   36
Dispersion correction           -0.000942742
FINAL SINGLE POINT ENERGY      -231.459896848199
Dispersion correction           -0.000215470
FINAL SINGLE POINT ENERGY      -115.727026124928

CARTESIAN COORDINATES (ANGSTROEM)
---------------------------------
  C     -7.213626    3.384994   10.819294
  O     -6.871393    4.171338   11.892406
  H     -6.898183    3.456101   12.542300
  H     -6.335732    2.906768   10.264594
  H     -7.908215    2.573688   11.116931
  H     -7.828782    3.967057   10.125404
  C     -2.384133    5.612888   10.250260
  O     -2.876529    4.335479   10.740839
  H     -3.130271    3.791132    9.947765
  H     -3.259201    6.241876   10.017787
  H     -1.742954    6.086604   10.965910
  H     -1.794586    5.557124    9.331309

 Multiplicity           Mult            ....    1
 Number of Electrons    NEL             ....   18
 Basis Dimension        Dim             ....  172

ORBITAL ENERGIES
----------------

  NO   OCC          E(Eh)            E(eV)
   0   2.0000     -19.233532      -523.3710
   1   2.0000     -10.314396      -280.6690
   2   2.0000      -1.118011       -30.4226
   3   2.0000      -0.796092       -21.6628
   4   2.0000      -0.600141       -16.3307
   5   2.0000      -0.540316       -14.7028
   6   2.0000      -0.518881       -14.1195
   7   2.0000      -0.437763       -11.9121
   8   2.0000      -0.373468       -10.1626
   9   0.0000       0.086117         2.3434
  10   0.0000       0.116955         3.1825
  11   0.0000       0.149364         4.0644
  12   0.0000       0.175214         4.7678
  13   0.0000       0.188493         5.1292

MULLIKEN ATOMIC CHARGES
-----------------------
   0 C :   -0.000213
   1 O :    0.000013
   2 H :   -0.000004
   3 H :   -0.001775
   4 H :   -0.000093
   5 H :    0.000047
   6 C :   -0.179122
   7 O :   -0.480569
   8 H :    0.317485
   9 H :    0.108869
  10 H :    0.126671
  11 H :    0.108692
Sum of atomic charges:   -0.0000000

LOEWDIN ATOMIC CHARGES
----------------------
   0 C :   -0.000844
   1 O :   -0.000211
   2 H :   -0.000065
   3 H :   -0.000794
   4 H :   -0.000019
   5 H :   -0.000004
   6 C :   -0.360200
   7 O :   -0.120973
   8 H :    0.186119
   9 H :    0.099191
  10 H :    0.102361
  11 H :    0.095440

  Mayer bond orders larger than 0.1
B(  6-C ,  7-O ) :   0.9980 B(  6-C ,  9-H ) :   0.9776 B(  6-C , 10-H ) :   0.9719
B(  6-C , 11-H ) :   0.9740 B(  7-O ,  8-H ) :   0.8949

Dispersion correction           -0.000260610
FINAL SINGLE POINT ENERGY      -115.733222462480

DIPOLE MOMENT
-------------
                                X             Y             Z
Electronic contribution:     -0.52438      -1.55376       0.81757
Nuclear contribution   :      0.59893       1.74904      -1.52073
                        -----------------------------------------
Total Dipole Moment    :      0.07456       0.19528      -0.70315
                        -----------------------------------------
Magnitude (a.u.)       :      0.73357
Magnitude (Debye)      :      1.86458

Rotational constants in cm-1:     4.279811     0.790690     0.764114
Rotational constants in MHz : 128305.504143 23704.301457 22907.558073

                             ****ORCA TERMINATED NORMALLY****
TOTAL RUN TIME: 0 days 0 hours 0 minutes 53 seconds 979 msec
