                         Program Version 4.1.2  - RELEASE  -
|  1> #Run DFT geometry optimization
|  2> ! wB97X-D3 def2-TZVP TIGHTSCF Grid5 FinalGrid6 Opt CHELPG PAL4
|  3>
|  4> %base "4_geo_opt"
|  5> %geom MaxIter 500
|  6> end
|  7>
|  8> %geom
|  9>   Constraints
| 10>     { B 5 0 C }
| 11>   end
| 12> end
| 13>
| 14>
| 15> * xyz 0 1
| 16>   C                    3.011356             -1.180979            0.598460
| 17>   O                    4.394721             -1.128132            0.874276
| 18>   H                    4.772244             -0.379104            0.412461
| 19>   H                    2.806482             -1.319047            -0.469381
| 20>   H                    2.611680             -2.040347            1.135867
| 21>   H                    2.484709             -0.284409            0.945691
| 22> *
| 23>
| 24>                          ****END OF INPUT****
 Total Charge           Charge          ....    0
 Multiplicity           Mult            ....    1
 Number of Electrons    NEL             ....   18
Dispersion correction           -0.000239303
FINAL SINGLE POINT ENERGY      -115.738051340081
Dispersion correction            ... done
                    ***********************HURRAY********************

CARTESIAN COORDINATES (ANGSTROEM)
---------------------------------
  C      3.011411   -1.181015    0.598491
  O      4.394741   -1.128109    0.874252
  H      4.772228   -0.379071    0.412449
  H      2.806494   -1.319048   -0.469348
  H      2.611577   -2.040331    1.135846
  H      2.484740   -0.284445    0.945684

 Multiplicity           Mult            ....    1
 Number of Electrons    NEL             ....   18
 Basis Dimension        Dim             ....   86

ORBITAL ENERGIES
----------------

  NO   OCC          E(Eh)            E(eV)
   0   2.0000     -19.228087      -523.2229
   1   2.0000     -10.315132      -280.6890
   2   2.0000      -1.136817       -30.9344
   3   2.0000      -0.795332       -21.6421
   4   2.0000      -0.611595       -16.6423
   5   2.0000      -0.541755       -14.7419
   6   2.0000      -0.526342       -14.3225
   7   2.0000      -0.433790       -11.8040
   8   2.0000      -0.373602       -10.1662
   9   0.0000       0.116641         3.1740
  10   0.0000       0.156670         4.2632
  11   0.0000       0.202576         5.5124
  12   0.0000       0.205101         5.5811
  13   0.0000       0.226368         6.1598

MULLIKEN ATOMIC CHARGES
-----------------------
   0 C :   -0.150866
   1 O :   -0.477624
   2 H :    0.313020
   3 H :    0.098631
   4 H :    0.118234
   5 H :    0.098604
Sum of atomic charges:   -0.0000000

LOEWDIN ATOMIC CHARGES
----------------------
   0 C :   -0.385222
   1 O :   -0.076066
   2 H :    0.165787
   3 H :    0.093392
   4 H :    0.108682
   5 H :    0.093428

  Mayer bond orders larger than 0.1
B(  0-C ,  1-O ) :   0.9987 B(  0-C ,  3-H ) :   0.9755 B(  0-C ,  4-H ) :   0.9749
B(  0-C ,  5-H ) :   0.9755 B(  1-O ,  2-H ) :   0.9002

Dispersion correction           -0.000239296
FINAL SINGLE POINT ENERGY      -115.738051357432

DIPOLE MOMENT
-------------
                                X             Y             Z
Electronic contribution:      1.75621      -0.02845       0.41975
Nuclear contribution   :     -2.06592       0.47597      -0.81740
                        -----------------------------------------
Total Dipole Moment    :     -0.30971       0.44752      -0.39765
                        -----------------------------------------
Magnitude (a.u.)       :      0.67403
Magnitude (Debye)      :      1.71325

Rotational constants in cm-1:     4.292624     0.833806     0.804923
Rotational constants in MHz : 128689.634212 24996.874056 24130.993456

                             ****ORCA TERMINATED NORMALLY****
TOTAL RUN TIME: 0 days 0 hours 0 minutes 35 seconds 383 msec
