                         Program Version 4.1.2  - RELEASE  -
|  1> #Run DFT-D3 single point of the dimer
|  2> ! wB97X-D3 def2-TZVP TIGHTSCF CHELPG PMODEL PAL8
|  3>
|  4> %base "3-141_DFT_AB"
|  5>
|  6> %scf
|  7> MaxIter 1000
|  8> end
|  9>
| 10> * xyz 0 1
| 11>   C                      -3.609709            -6.212238            11.084964
| 12>   O                      -4.364734            -5.445713            10.082139
| 13>   H                      -4.900436            -4.779414            10.518448
| 14>   H                      -3.996064            -6.014864            12.063790
| 15>   H                      -3.631724            -7.334633            10.985328
| 16>   H                      -2.523652            -5.863047            11.239573
| 17>   C                      -7.784196            -4.852069            8.747609
| 18>   O                      -7.859808            -6.032088            9.437497
| 19>   H                      -7.341797            -6.604053            8.917386
| 20>   H                      -8.312533            -4.041843            9.250076
| 21>   H                      -6.750123            -4.486530            8.714735
| 22>   H                      -8.112020            -4.905922            7.783743
| 23> *
| 24>
| 25> #Run DFT-D3 single point of the molecule with dimer basis set
| 26> $new_job
| 27> %base "3-141_DFT_A"
| 28> ! wB97X-D3 def2-TZVP TIGHTSCF CHELPG PMODEL
| 29>
| 30> %scf
| 31> MaxIter 1000
| 32> end
| 33>
| 34> * xyz 0 1
| 35>   C                      -3.609709            -6.212238            11.084964
| 36>   O                      -4.364734            -5.445713            10.082139
| 37>   H                      -4.900436            -4.779414            10.518448
| 38>   H                      -3.996064            -6.014864            12.063790
| 39>   H                      -3.631724            -7.334633            10.985328
| 40>   H                      -2.523652            -5.863047            11.239573
| 41>   C                    : -7.784196            -4.852069            8.747609
| 42>   O                    : -7.859808            -6.032088            9.437497
| 43>   H                    : -7.341797            -6.604053            8.917386
| 44>   H                    : -8.312533            -4.041843            9.250076
| 45>   H                    : -6.750123            -4.486530            8.714735
| 46>   H                    : -8.112020            -4.905922            7.783743
| 47> *
| 48>
| 49> #Run DFT-D3 single point of the particle with dimer basis set
| 50> $new_job
| 51> %base "3-141_DFT_B"
| 52> ! wB97X-D3 def2-TZVP TIGHTSCF CHELPG PMODEL
| 53>
| 54> %scf
| 55> MaxIter 1000
| 56> end
| 57>
| 58> * xyz 0 1
| 59>   C                    : -3.609709            -6.212238            11.084964
| 60>   O                    : -4.364734            -5.445713            10.082139
| 61>   H                    : -4.900436            -4.779414            10.518448
| 62>   H                    : -3.996064            -6.014864            12.063790
| 63>   H                    : -3.631724            -7.334633            10.985328
| 64>   H                    : -2.523652            -5.863047            11.239573
| 65>   C                      -7.784196            -4.852069            8.747609
| 66>   O                      -7.859808            -6.032088            9.437497
| 67>   H                      -7.341797            -6.604053            8.917386
| 68>   H                      -8.312533            -4.041843            9.250076
| 69>   H                      -6.750123            -4.486530            8.714735
| 70>   H                      -8.112020            -4.905922            7.783743
| 71> *
| 72>
| 73>                          ****END OF INPUT****
 Total Charge           Charge          ....    0
 Multiplicity           Mult            ....    1
 Number of Electrons    NEL             ....   36
Dispersion correction           -0.001511873
FINAL SINGLE POINT ENERGY      -231.457825573696
Dispersion correction           -0.000298218
FINAL SINGLE POINT ENERGY      -115.726190461714

CARTESIAN COORDINATES (ANGSTROEM)
---------------------------------
  C     -3.609709   -6.212238   11.084964
  O     -4.364734   -5.445713   10.082139
  H     -4.900436   -4.779414   10.518448
  H     -3.996064   -6.014864   12.063790
  H     -3.631724   -7.334633   10.985328
  H     -2.523652   -5.863047   11.239573
  C     -7.784196   -4.852069    8.747609
  O     -7.859808   -6.032088    9.437497
  H     -7.341797   -6.604053    8.917386
  H     -8.312533   -4.041843    9.250076
  H     -6.750123   -4.486530    8.714735
  H     -8.112020   -4.905922    7.783743

 Multiplicity           Mult            ....    1
 Number of Electrons    NEL             ....   18
 Basis Dimension        Dim             ....  172

ORBITAL ENERGIES
----------------

  NO   OCC          E(Eh)            E(eV)
   0   2.0000     -19.229578      -523.2634
   1   2.0000     -10.300213      -280.2830
   2   2.0000      -1.161251       -31.5992
   3   2.0000      -0.800727       -21.7889
   4   2.0000      -0.626628       -17.0514
   5   2.0000      -0.553563       -15.0632
   6   2.0000      -0.534524       -14.5451
   7   2.0000      -0.437770       -11.9123
   8   2.0000      -0.373737       -10.1699
   9   0.0000       0.084537         2.3004
  10   0.0000       0.123114         3.3501
  11   0.0000       0.154148         4.1946
  12   0.0000       0.175139         4.7658
  13   0.0000       0.196875         5.3572

MULLIKEN ATOMIC CHARGES
-----------------------
   0 C :   -0.001008
   1 O :    0.000241
   2 H :    0.000749
   3 H :    0.000101
   4 H :    0.000083
   5 H :   -0.000016
   6 C :   -0.164768
   7 O :   -0.452004
   8 H :    0.309728
   9 H :    0.110583
  10 H :    0.087135
  11 H :    0.109175
Sum of atomic charges:   -0.0000000

LOEWDIN ATOMIC CHARGES
----------------------
   0 C :   -0.000472
   1 O :   -0.001703
   2 H :   -0.001977
   3 H :   -0.000019
   4 H :   -0.000018
   5 H :   -0.000016
   6 C :   -0.411846
   7 O :   -0.023752
   8 H :    0.158385
   9 H :    0.109704
  10 H :    0.094604
  11 H :    0.077112

  Mayer bond orders larger than 0.1
B(  6-C ,  7-O ) :   1.0040 B(  6-C ,  9-H ) :   0.9753 B(  6-C , 10-H ) :   0.9833
B(  6-C , 11-H ) :   0.9809 B(  7-O ,  8-H ) :   0.9078

Dispersion correction           -0.000196687
FINAL SINGLE POINT ENERGY      -115.729051089932

DIPOLE MOMENT
-------------
                                X             Y             Z
Electronic contribution:     -0.30934      -1.60999       0.95822
Nuclear contribution   :      0.64956       1.68591      -1.55356
                        -----------------------------------------
Total Dipole Moment    :      0.34023       0.07592      -0.59534
                        -----------------------------------------
Magnitude (a.u.)       :      0.68989
Magnitude (Debye)      :      1.75357

Rotational constants in cm-1:     4.544161     0.885149     0.850499
Rotational constants in MHz : 136230.514374 26536.087219 25497.311843

                             ****ORCA TERMINATED NORMALLY****
TOTAL RUN TIME: 0 days 0 hours 5 minutes 44 seconds 15 msec
