                         Program Version 4.1.2  - RELEASE  -
|  1> #Run DFT-D3 single point of the dimer
|  2> ! wB97X-D3 def2-TZVP TIGHTSCF CHELPG PMODEL PAL8
|  3>
|  4> %base "18-197_DFT_AB"
|  5>
|  6> %scf
|  7> MaxIter 1000
|  8> end
|  9>
| 10> * xyz 0 1
| 11>   C                      10.128577            0.098016             -7.714797
| 12>   O                      10.258327            1.347297             -7.099161
| 13>   H                      9.527064             1.536801             -6.495390
| 14>   H                      10.339531            -0.673182            -6.936152
| 15>   H                      9.078688             0.010444             -8.055894
| 16>   H                      10.771831            -0.072254            -8.598922
| 17>   C                      9.594464             4.031848             -3.485780
| 18>   O                      9.433977             3.221107             -4.602122
| 19>   H                      8.485264             3.237819             -4.857603
| 20>   H                      10.137413            4.976285             -3.732843
| 21>   H                      8.576874             4.279058             -3.077147
| 22>   H                      10.282381            3.611429             -2.695346
| 23> *
| 24>
| 25> #Run DFT-D3 single point of the molecule with dimer basis set
| 26> $new_job
| 27> %base "18-197_DFT_A"
| 28> ! wB97X-D3 def2-TZVP TIGHTSCF CHELPG PMODEL
| 29>
| 30> %scf
| 31> MaxIter 1000
| 32> end
| 33>
| 34> * xyz 0 1
| 35>   C                      10.128577            0.098016             -7.714797
| 36>   O                      10.258327            1.347297             -7.099161
| 37>   H                      9.527064             1.536801             -6.495390
| 38>   H                      10.339531            -0.673182            -6.936152
| 39>   H                      9.078688             0.010444             -8.055894
| 40>   H                      10.771831            -0.072254            -8.598922
| 41>   C                    : 9.594464             4.031848             -3.485780
| 42>   O                    : 9.433977             3.221107             -4.602122
| 43>   H                    : 8.485264             3.237819             -4.857603
| 44>   H                    : 10.137413            4.976285             -3.732843
| 45>   H                    : 8.576874             4.279058             -3.077147
| 46>   H                    : 10.282381            3.611429             -2.695346
| 47> *
| 48>
| 49> #Run DFT-D3 single point of the particle with dimer basis set
| 50> $new_job
| 51> %base "18-197_DFT_B"
| 52> ! wB97X-D3 def2-TZVP TIGHTSCF CHELPG PMODEL
| 53>
| 54> %scf
| 55> MaxIter 1000
| 56> end
| 57>
| 58> * xyz 0 1
| 59>   C                    : 10.128577            0.098016             -7.714797
| 60>   O                    : 10.258327            1.347297             -7.099161
| 61>   H                    : 9.527064             1.536801             -6.495390
| 62>   H                    : 10.339531            -0.673182            -6.936152
| 63>   H                    : 9.078688             0.010444             -8.055894
| 64>   H                    : 10.771831            -0.072254            -8.598922
| 65>   C                      9.594464             4.031848             -3.485780
| 66>   O                      9.433977             3.221107             -4.602122
| 67>   H                      8.485264             3.237819             -4.857603
| 68>   H                      10.137413            4.976285             -3.732843
| 69>   H                      8.576874             4.279058             -3.077147
| 70>   H                      10.282381            3.611429             -2.695346
| 71> *
| 72>
| 73>                          ****END OF INPUT****
 Total Charge           Charge          ....    0
 Multiplicity           Mult            ....    1
 Number of Electrons    NEL             ....   36
Dispersion correction           -0.001161093
FINAL SINGLE POINT ENERGY      -231.463135005909
Dispersion correction           -0.000233083
FINAL SINGLE POINT ENERGY      -115.732387636820

CARTESIAN COORDINATES (ANGSTROEM)
---------------------------------
  C     10.128577    0.098016   -7.714797
  O     10.258327    1.347297   -7.099161
  H      9.527064    1.536801   -6.495390
  H     10.339531   -0.673182   -6.936152
  H      9.078688    0.010444   -8.055894
  H     10.771831   -0.072254   -8.598922
  C      9.594464    4.031848   -3.485780
  O      9.433977    3.221107   -4.602122
  H      8.485264    3.237819   -4.857603
  H     10.137413    4.976285   -3.732843
  H      8.576874    4.279058   -3.077147
  H     10.282381    3.611429   -2.695346

 Multiplicity           Mult            ....    1
 Number of Electrons    NEL             ....   18
 Basis Dimension        Dim             ....  172

ORBITAL ENERGIES
----------------

  NO   OCC          E(Eh)            E(eV)
   0   2.0000     -19.233942      -523.3822
   1   2.0000     -10.321103      -280.8515
   2   2.0000      -1.141926       -31.0734
   3   2.0000      -0.786388       -21.3987
   4   2.0000      -0.613241       -16.6871
   5   2.0000      -0.541946       -14.7471
   6   2.0000      -0.528279       -14.3752
   7   2.0000      -0.430361       -11.7107
   8   2.0000      -0.367628       -10.0037
   9   0.0000       0.093425         2.5422
  10   0.0000       0.111028         3.0212
  11   0.0000       0.149716         4.0740
  12   0.0000       0.187137         5.0923
  13   0.0000       0.201634         5.4868

MULLIKEN ATOMIC CHARGES
-----------------------
   0 C :    0.000744
   1 O :    0.000254
   2 H :   -0.007588
   3 H :   -0.000094
   4 H :   -0.000003
   5 H :    0.000009
   6 C :   -0.166747
   7 O :   -0.456638
   8 H :    0.324446
   9 H :    0.099235
  10 H :    0.094918
  11 H :    0.111465
Sum of atomic charges:    0.0000000

LOEWDIN ATOMIC CHARGES
----------------------
   0 C :   -0.000127
   1 O :   -0.002510
   2 H :   -0.010185
   3 H :   -0.000011
   4 H :   -0.000002
   5 H :   -0.000003
   6 C :   -0.418068
   7 O :   -0.063037
   8 H :    0.189066
   9 H :    0.097434
  10 H :    0.100456
  11 H :    0.106987

  Mayer bond orders larger than 0.1
B(  6-C ,  7-O ) :   1.0137 B(  6-C ,  9-H ) :   0.9729 B(  6-C , 10-H ) :   0.9868
B(  6-C , 11-H ) :   0.9728 B(  7-O ,  8-H ) :   0.8901

Dispersion correction           -0.000250950
FINAL SINGLE POINT ENERGY      -115.730559055964

DIPOLE MOMENT
-------------
                                X             Y             Z
Electronic contribution:     -0.12041      -1.18071      -1.48632
Nuclear contribution   :     -0.43482       1.49445       1.73940
                        -----------------------------------------
Total Dipole Moment    :     -0.55523       0.31375       0.25308
                        -----------------------------------------
Magnitude (a.u.)       :      0.68613
Magnitude (Debye)      :      1.74400

Rotational constants in cm-1:     4.141235     0.851545     0.807069
Rotational constants in MHz : 124151.099606 25528.673324 24195.316377

                             ****ORCA TERMINATED NORMALLY****
TOTAL RUN TIME: 0 days 0 hours 0 minutes 58 seconds 501 msec
