                         Program Version 4.1.2  - RELEASE  -
|  1> #Run DFT-D3 single point of the dimer
|  2> ! wB97X-D3 def2-TZVP TIGHTSCF CHELPG PMODEL PAL8
|  3>
|  4> %base "4-38_DFT_AB"
|  5>
|  6> %scf
|  7> MaxIter 1000
|  8> end
|  9>
| 10> * xyz 0 1
| 11>   C                      -5.192736            -2.225288            6.637700
| 12>   O                      -5.408181            -1.507434            5.386835
| 13>   H                      -4.517370            -1.420161            5.041826
| 14>   H                      -4.838058            -1.544956            7.408872
| 15>   H                      -6.004383            -2.688830            7.117625
| 16>   H                      -4.338427            -2.918640            6.592779
| 17>   C                      -5.041335            2.123413             2.900652
| 18>   O                      -4.168426            1.513994             2.012559
| 19>   H                      -3.534758            2.182885             1.732088
| 20>   H                      -5.560199            2.970252             2.313670
| 21>   H                      -5.770273            1.475677             3.345213
| 22>   H                      -4.568301            2.627123             3.698414
| 23> *
| 24>
| 25> #Run DFT-D3 single point of the molecule with dimer basis set
| 26> $new_job
| 27> %base "4-38_DFT_A"
| 28> ! wB97X-D3 def2-TZVP TIGHTSCF CHELPG PMODEL
| 29>
| 30> %scf
| 31> MaxIter 1000
| 32> end
| 33>
| 34> * xyz 0 1
| 35>   C                      -5.192736            -2.225288            6.637700
| 36>   O                      -5.408181            -1.507434            5.386835
| 37>   H                      -4.517370            -1.420161            5.041826
| 38>   H                      -4.838058            -1.544956            7.408872
| 39>   H                      -6.004383            -2.688830            7.117625
| 40>   H                      -4.338427            -2.918640            6.592779
| 41>   C                    : -5.041335            2.123413             2.900652
| 42>   O                    : -4.168426            1.513994             2.012559
| 43>   H                    : -3.534758            2.182885             1.732088
| 44>   H                    : -5.560199            2.970252             2.313670
| 45>   H                    : -5.770273            1.475677             3.345213
| 46>   H                    : -4.568301            2.627123             3.698414
| 47> *
| 48>
| 49> #Run DFT-D3 single point of the particle with dimer basis set
| 50> $new_job
| 51> %base "4-38_DFT_B"
| 52> ! wB97X-D3 def2-TZVP TIGHTSCF CHELPG PMODEL
| 53>
| 54> %scf
| 55> MaxIter 1000
| 56> end
| 57>
| 58> * xyz 0 1
| 59>   C                    : -5.192736            -2.225288            6.637700
| 60>   O                    : -5.408181            -1.507434            5.386835
| 61>   H                    : -4.517370            -1.420161            5.041826
| 62>   H                    : -4.838058            -1.544956            7.408872
| 63>   H                    : -6.004383            -2.688830            7.117625
| 64>   H                    : -4.338427            -2.918640            6.592779
| 65>   C                      -5.041335            2.123413             2.900652
| 66>   O                      -4.168426            1.513994             2.012559
| 67>   H                      -3.534758            2.182885             1.732088
| 68>   H                      -5.560199            2.970252             2.313670
| 69>   H                      -5.770273            1.475677             3.345213
| 70>   H                      -4.568301            2.627123             3.698414
| 71> *
| 72>
| 73>                          ****END OF INPUT****
 Total Charge           Charge          ....    0
 Multiplicity           Mult            ....    1
 Number of Electrons    NEL             ....   36
Dispersion correction           -0.000832898
FINAL SINGLE POINT ENERGY      -231.458532400880
Dispersion correction           -0.000252548
FINAL SINGLE POINT ENERGY      -115.727016081482

CARTESIAN COORDINATES (ANGSTROEM)
---------------------------------
  C     -5.192736   -2.225288    6.637700
  O     -5.408181   -1.507434    5.386835
  H     -4.517370   -1.420161    5.041826
  H     -4.838058   -1.544956    7.408872
  H     -6.004383   -2.688830    7.117625
  H     -4.338427   -2.918640    6.592779
  C     -5.041335    2.123413    2.900652
  O     -4.168426    1.513994    2.012559
  H     -3.534758    2.182885    1.732088
  H     -5.560199    2.970252    2.313670
  H     -5.770273    1.475677    3.345213
  H     -4.568301    2.627123    3.698414

 Multiplicity           Mult            ....    1
 Number of Electrons    NEL             ....   18
 Basis Dimension        Dim             ....  172

ORBITAL ENERGIES
----------------

  NO   OCC          E(Eh)            E(eV)
   0   2.0000     -19.230678      -523.2933
   1   2.0000     -10.310718      -280.5689
   2   2.0000      -1.145522       -31.1712
   3   2.0000      -0.795343       -21.6424
   4   2.0000      -0.618457       -16.8291
   5   2.0000      -0.542727       -14.7684
   6   2.0000      -0.533603       -14.5201
   7   2.0000      -0.435412       -11.8482
   8   2.0000      -0.367213        -9.9924
   9   0.0000       0.088001         2.3946
  10   0.0000       0.112818         3.0699
  11   0.0000       0.149944         4.0802
  12   0.0000       0.171367         4.6631
  13   0.0000       0.194482         5.2921

MULLIKEN ATOMIC CHARGES
-----------------------
   0 C :   -0.000050
   1 O :   -0.000009
   2 H :   -0.000073
   3 H :    0.000006
   4 H :   -0.000003
   5 H :   -0.000000
   6 C :   -0.166732
   7 O :   -0.465237
   8 H :    0.317036
   9 H :    0.087810
  10 H :    0.124200
  11 H :    0.103051
Sum of atomic charges:   -0.0000000

LOEWDIN ATOMIC CHARGES
----------------------
   0 C :   -0.000023
   1 O :   -0.000114
   2 H :   -0.000138
   3 H :   -0.000001
   4 H :   -0.000001
   5 H :   -0.000000
   6 C :   -0.406330
   7 O :   -0.058793
   8 H :    0.175646
   9 H :    0.102487
  10 H :    0.103342
  11 H :    0.083926

  Mayer bond orders larger than 0.1
B(  6-C ,  7-O ) :   0.9993 B(  6-C ,  9-H ) :   0.9893 B(  6-C , 10-H ) :   0.9706
B(  6-C , 11-H ) :   0.9734 B(  7-O ,  8-H ) :   0.8969

Dispersion correction           -0.000218906
FINAL SINGLE POINT ENERGY      -115.730399483784

DIPOLE MOMENT
-------------
                                X             Y             Z
Electronic contribution:      1.11898      -1.12423      -1.04469
Nuclear contribution   :     -1.02934       1.76221       1.23685
                        -----------------------------------------
Total Dipole Moment    :      0.08964       0.63798       0.19215
                        -----------------------------------------
Magnitude (a.u.)       :      0.67229
Magnitude (Debye)      :      1.70883

Rotational constants in cm-1:     4.334262     0.858484     0.822656
Rotational constants in MHz : 129937.915234 25736.716700 24662.607095

                             ****ORCA TERMINATED NORMALLY****
TOTAL RUN TIME: 0 days 0 hours 1 minutes 35 seconds 642 msec
