                         Program Version 4.1.2  - RELEASE  -
|  1> #Run DFT-D3 single point of the dimer
|  2> ! wB97X-D3 def2-TZVP TIGHTSCF  CHELPG PAL8
|  3>
|  4> %base "42_charges"
|  5>
|  6> %scf
|  7> MaxIter 1000
|  8> end
|  9> %output
| 10>   Print[ P_Mayer ] 1
| 11>   Print[ P_NatPop ] 1
| 12>   Print[ P_Hirshfeld ] 1
| 13>   Print[ P_Mulliken ] 1
| 14>   Print [ P_Loewdin ] 1
| 15> end
| 16>
| 17> * xyz 0 1
| 18>   C                      -2.785418            1.376403             -7.307056
| 19>   O                      -2.626977            2.536526             -8.077893
| 20>   H                      -3.532255            2.928424             -8.130873
| 21>   H                      -1.854902            0.985404             -7.017220
| 22>   H                      -3.258974            1.646841             -6.356756
| 23>   H                      -3.421532            0.673767             -7.828351
| 24> *
| 25>
| 26>                          ****END OF INPUT****

CARTESIAN COORDINATES (ANGSTROEM)
---------------------------------
  C     -2.785418    1.376403   -7.307056
  O     -2.626977    2.536526   -8.077893
  H     -3.532255    2.928424   -8.130873
  H     -1.854902    0.985404   -7.017220
  H     -3.258974    1.646841   -6.356756
  H     -3.421532    0.673767   -7.828351

 Total Charge           Charge          ....    0
 Multiplicity           Mult            ....    1
 Number of Electrons    NEL             ....   18
 Basis Dimension        Dim             ....   86

ORBITAL ENERGIES
----------------

  NO   OCC          E(Eh)            E(eV)
   0   2.0000     -19.230054      -523.2764
   1   2.0000     -10.305725      -280.4330
   2   2.0000      -1.135743       -30.9051
   3   2.0000      -0.794649       -21.6235
   4   2.0000      -0.607667       -16.5355
   5   2.0000      -0.551283       -15.0012
   6   2.0000      -0.529069       -14.3967
   7   2.0000      -0.434633       -11.8270
   8   2.0000      -0.370293       -10.0762
   9   0.0000       0.111489         3.0338
  10   0.0000       0.159801         4.3484
  11   0.0000       0.202882         5.5207
  12   0.0000       0.210043         5.7156
  13   0.0000       0.223945         6.0938

MULLIKEN ATOMIC CHARGES
-----------------------
   0 C :   -0.152169
   1 O :   -0.473491
   2 H :    0.316204
   3 H :    0.115458
   4 H :    0.093973
   5 H :    0.100025
Sum of atomic charges:   -0.0000000

LOEWDIN ATOMIC CHARGES
----------------------
   0 C :   -0.389191
   1 O :   -0.083545
   2 H :    0.187620
   3 H :    0.097606
   4 H :    0.095029
   5 H :    0.092481

  Mayer bond orders larger than 0.1
B(  0-C ,  1-O ) :   0.9987 B(  0-C ,  3-H ) :   0.9738 B(  0-C ,  4-H ) :   0.9846
B(  0-C ,  5-H ) :   0.9790 B(  1-O ,  2-H ) :   0.8968

Dispersion correction           -0.000208575
FINAL SINGLE POINT ENERGY      -115.732925849241

DIPOLE MOMENT
-------------
                                X             Y             Z
Electronic contribution:      0.45092       1.36026      -1.06858
Nuclear contribution   :     -1.05470      -1.56784       1.35262
                        -----------------------------------------
Total Dipole Moment    :     -0.60378      -0.20758       0.28405
                        -----------------------------------------
Magnitude (a.u.)       :      0.69880
Magnitude (Debye)      :      1.77621

Rotational constants in cm-1:     4.281744     0.853486     0.822814
Rotational constants in MHz : 128363.442479 25586.858056 24667.336227

                             ****ORCA TERMINATED NORMALLY****
TOTAL RUN TIME: 0 days 0 hours 0 minutes 41 seconds 760 msec
