                         Program Version 4.1.2  - RELEASE  -
|  1> #Run DFT-D3 single point of the dimer
|  2> ! wB97X-D3 def2-TZVP TIGHTSCF CHELPG PMODEL PAL8
|  3>
|  4> %base "4-80_DFT_AB"
|  5>
|  6> %scf
|  7> MaxIter 1000
|  8> end
|  9>
| 10> * xyz 0 1
| 11>   C                      10.523130            -2.639775            4.449714
| 12>   O                      9.637086             -1.623541            4.944725
| 13>   H                      10.235835            -1.029594            5.432499
| 14>   H                      10.169014            -3.207924            3.581402
| 15>   H                      11.577218            -2.300368            4.261550
| 16>   H                      10.573071            -3.466301            5.153517
| 17>   C                      6.153015             -5.292098            3.603107
| 18>   O                      6.950715             -5.901456            2.651022
| 19>   H                      6.387861             -6.556969            2.128899
| 20>   H                      5.094600             -5.368703            3.263244
| 21>   H                      6.258839             -5.732729            4.566604
| 22>   H                      6.401723             -4.268254            3.740448
| 23> *
| 24>
| 25> #Run DFT-D3 single point of the molecule with dimer basis set
| 26> $new_job
| 27> %base "4-80_DFT_A"
| 28> ! wB97X-D3 def2-TZVP TIGHTSCF CHELPG PMODEL
| 29>
| 30> %scf
| 31> MaxIter 1000
| 32> end
| 33>
| 34> * xyz 0 1
| 35>   C                      10.523130            -2.639775            4.449714
| 36>   O                      9.637086             -1.623541            4.944725
| 37>   H                      10.235835            -1.029594            5.432499
| 38>   H                      10.169014            -3.207924            3.581402
| 39>   H                      11.577218            -2.300368            4.261550
| 40>   H                      10.573071            -3.466301            5.153517
| 41>   C                    : 6.153015             -5.292098            3.603107
| 42>   O                    : 6.950715             -5.901456            2.651022
| 43>   H                    : 6.387861             -6.556969            2.128899
| 44>   H                    : 5.094600             -5.368703            3.263244
| 45>   H                    : 6.258839             -5.732729            4.566604
| 46>   H                    : 6.401723             -4.268254            3.740448
| 47> *
| 48>
| 49> #Run DFT-D3 single point of the particle with dimer basis set
| 50> $new_job
| 51> %base "4-80_DFT_B"
| 52> ! wB97X-D3 def2-TZVP TIGHTSCF CHELPG PMODEL
| 53>
| 54> %scf
| 55> MaxIter 1000
| 56> end
| 57>
| 58> * xyz 0 1
| 59>   C                    : 10.523130            -2.639775            4.449714
| 60>   O                    : 9.637086             -1.623541            4.944725
| 61>   H                    : 10.235835            -1.029594            5.432499
| 62>   H                    : 10.169014            -3.207924            3.581402
| 63>   H                    : 11.577218            -2.300368            4.261550
| 64>   H                    : 10.573071            -3.466301            5.153517
| 65>   C                      6.153015             -5.292098            3.603107
| 66>   O                      6.950715             -5.901456            2.651022
| 67>   H                      6.387861             -6.556969            2.128899
| 68>   H                      5.094600             -5.368703            3.263244
| 69>   H                      6.258839             -5.732729            4.566604
| 70>   H                      6.401723             -4.268254            3.740448
| 71> *
| 72>
| 73>                          ****END OF INPUT****
 Total Charge           Charge          ....    0
 Multiplicity           Mult            ....    1
 Number of Electrons    NEL             ....   36
Dispersion correction           -0.000777073
FINAL SINGLE POINT ENERGY      -231.461095760920
Dispersion correction           -0.000261416
FINAL SINGLE POINT ENERGY      -115.729933118948

CARTESIAN COORDINATES (ANGSTROEM)
---------------------------------
  C     10.523130   -2.639775    4.449714
  O      9.637086   -1.623541    4.944725
  H     10.235835   -1.029594    5.432499
  H     10.169014   -3.207924    3.581402
  H     11.577218   -2.300368    4.261550
  H     10.573071   -3.466301    5.153517
  C      6.153015   -5.292098    3.603107
  O      6.950715   -5.901456    2.651022
  H      6.387861   -6.556969    2.128899
  H      5.094600   -5.368703    3.263244
  H      6.258839   -5.732729    4.566604
  H      6.401723   -4.268254    3.740448

 Multiplicity           Mult            ....    1
 Number of Electrons    NEL             ....   18
 Basis Dimension        Dim             ....  172

ORBITAL ENERGIES
----------------

  NO   OCC          E(Eh)            E(eV)
   0   2.0000     -19.231386      -523.3126
   1   2.0000     -10.305099      -280.4160
   2   2.0000      -1.136057       -30.9137
   3   2.0000      -0.792845       -21.5744
   4   2.0000      -0.609093       -16.5743
   5   2.0000      -0.545573       -14.8458
   6   2.0000      -0.538160       -14.6441
   7   2.0000      -0.425494       -11.5783
   8   2.0000      -0.369609       -10.0576
   9   0.0000       0.089114         2.4249
  10   0.0000       0.106345         2.8938
  11   0.0000       0.154508         4.2044
  12   0.0000       0.168431         4.5832
  13   0.0000       0.187285         5.0963

MULLIKEN ATOMIC CHARGES
-----------------------
   0 C :    0.000125
   1 O :   -0.000019
   2 H :   -0.000003
   3 H :   -0.000331
   4 H :   -0.000002
   5 H :   -0.000025
   6 C :   -0.157046
   7 O :   -0.474211
   8 H :    0.322341
   9 H :    0.095497
  10 H :    0.099632
  11 H :    0.114042
Sum of atomic charges:   -0.0000000

LOEWDIN ATOMIC CHARGES
----------------------
   0 C :   -0.000067
   1 O :   -0.000019
   2 H :   -0.000001
   3 H :   -0.000095
   4 H :   -0.000001
   5 H :   -0.000006
   6 C :   -0.406924
   7 O :   -0.079168
   8 H :    0.200993
   9 H :    0.100384
  10 H :    0.088283
  11 H :    0.096620

  Mayer bond orders larger than 0.1
B(  6-C ,  7-O ) :   1.0119 B(  6-C ,  9-H ) :   0.9941 B(  6-C , 10-H ) :   0.9744
B(  6-C , 11-H ) :   0.9747 B(  7-O ,  8-H ) :   0.8904

Dispersion correction           -0.000228758
FINAL SINGLE POINT ENERGY      -115.730397605711

DIPOLE MOMENT
-------------
                                X             Y             Z
Electronic contribution:      1.21651      -0.68510      -1.15985
Nuclear contribution   :     -1.87325       0.51577       1.19234
                        -----------------------------------------
Total Dipole Moment    :     -0.65674      -0.16932       0.03249
                        -----------------------------------------
Magnitude (a.u.)       :      0.67900
Magnitude (Debye)      :      1.72587

Rotational constants in cm-1:     4.309183     0.865996     0.824599
Rotational constants in MHz : 129186.063157 25961.913655 24720.844452

                             ****ORCA TERMINATED NORMALLY****
TOTAL RUN TIME: 0 days 0 hours 1 minutes 34 seconds 84 msec
