                         Program Version 4.1.2  - RELEASE  -
|  1> #Run DFT-D3 single point of the dimer
|  2> ! wB97X-D3 def2-TZVP TIGHTSCF CHELPG PMODEL PAL8
|  3>
|  4> %base "22-141_DFT_AB"
|  5>
|  6> %scf
|  7> MaxIter 1000
|  8> end
|  9>
| 10> * xyz 0 1
| 11>   C                      0.527698             1.859503             9.663229
| 12>   O                      0.594535             0.604207             10.339565
| 13>   H                      1.417129             0.142972             9.950281
| 14>   H                      0.246686             1.908735             8.587147
| 15>   H                      -0.322910            2.327679             10.124349
| 16>   H                      1.373423             2.534069             9.816187
| 17>   C                      4.196622             -0.011702            10.072559
| 18>   O                      3.953575             -0.639063            8.796595
| 19>   H                      4.662885             -1.266409            8.818576
| 20>   H                      4.973549             0.804206             9.958830
| 21>   H                      3.363525             0.470732             10.566065
| 22>   H                      4.584626             -0.733397            10.864630
| 23> *
| 24>
| 25> #Run DFT-D3 single point of the molecule with dimer basis set
| 26> $new_job
| 27> %base "22-141_DFT_A"
| 28> ! wB97X-D3 def2-TZVP TIGHTSCF CHELPG PMODEL
| 29>
| 30> %scf
| 31> MaxIter 1000
| 32> end
| 33>
| 34> * xyz 0 1
| 35>   C                      0.527698             1.859503             9.663229
| 36>   O                      0.594535             0.604207             10.339565
| 37>   H                      1.417129             0.142972             9.950281
| 38>   H                      0.246686             1.908735             8.587147
| 39>   H                      -0.322910            2.327679             10.124349
| 40>   H                      1.373423             2.534069             9.816187
| 41>   C                    : 4.196622             -0.011702            10.072559
| 42>   O                    : 3.953575             -0.639063            8.796595
| 43>   H                    : 4.662885             -1.266409            8.818576
| 44>   H                    : 4.973549             0.804206             9.958830
| 45>   H                    : 3.363525             0.470732             10.566065
| 46>   H                    : 4.584626             -0.733397            10.864630
| 47> *
| 48>
| 49> #Run DFT-D3 single point of the particle with dimer basis set
| 50> $new_job
| 51> %base "22-141_DFT_B"
| 52> ! wB97X-D3 def2-TZVP TIGHTSCF CHELPG PMODEL
| 53>
| 54> %scf
| 55> MaxIter 1000
| 56> end
| 57>
| 58> * xyz 0 1
| 59>   C                    : 0.527698             1.859503             9.663229
| 60>   O                    : 0.594535             0.604207             10.339565
| 61>   H                    : 1.417129             0.142972             9.950281
| 62>   H                    : 0.246686             1.908735             8.587147
| 63>   H                    : -0.322910            2.327679             10.124349
| 64>   H                    : 1.373423             2.534069             9.816187
| 65>   C                      4.196622             -0.011702            10.072559
| 66>   O                      3.953575             -0.639063            8.796595
| 67>   H                      4.662885             -1.266409            8.818576
| 68>   H                      4.973549             0.804206             9.958830
| 69>   H                      3.363525             0.470732             10.566065
| 70>   H                      4.584626             -0.733397            10.864630
| 71> *
| 72>
| 73>                          ****END OF INPUT****
 Total Charge           Charge          ....    0
 Multiplicity           Mult            ....    1
 Number of Electrons    NEL             ....   36
Dispersion correction           -0.001755687
FINAL SINGLE POINT ENERGY      -231.460612049113
Dispersion correction           -0.000278381
FINAL SINGLE POINT ENERGY      -115.729401922347

CARTESIAN COORDINATES (ANGSTROEM)
---------------------------------
  C      0.527698    1.859503    9.663229
  O      0.594535    0.604207   10.339565
  H      1.417129    0.142972    9.950281
  H      0.246686    1.908735    8.587147
  H     -0.322910    2.327679   10.124349
  H      1.373423    2.534069    9.816187
  C      4.196622   -0.011702   10.072559
  O      3.953575   -0.639063    8.796595
  H      4.662885   -1.266409    8.818576
  H      4.973549    0.804206    9.958830
  H      3.363525    0.470732   10.566065
  H      4.584626   -0.733397   10.864630

 Multiplicity           Mult            ....    1
 Number of Electrons    NEL             ....   18
 Basis Dimension        Dim             ....  172

ORBITAL ENERGIES
----------------

  NO   OCC          E(Eh)            E(eV)
   0   2.0000     -19.236816      -523.4604
   1   2.0000     -10.324597      -280.9466
   2   2.0000      -1.139848       -31.0168
   3   2.0000      -0.791328       -21.5331
   4   2.0000      -0.605227       -16.4691
   5   2.0000      -0.535304       -14.5664
   6   2.0000      -0.527231       -14.3467
   7   2.0000      -0.443185       -12.0597
   8   2.0000      -0.376885       -10.2556
   9   0.0000       0.091442         2.4883
  10   0.0000       0.119189         3.2433
  11   0.0000       0.149054         4.0560
  12   0.0000       0.176522         4.8034
  13   0.0000       0.194130         5.2826

MULLIKEN ATOMIC CHARGES
-----------------------
   0 C :   -0.000199
   1 O :   -0.000655
   2 H :    0.002660
   3 H :   -0.000082
   4 H :    0.000090
   5 H :    0.000004
   6 C :   -0.207073
   7 O :   -0.451647
   8 H :    0.314980
   9 H :    0.109505
  10 H :    0.123021
  11 H :    0.109394
Sum of atomic charges:    0.0000000

LOEWDIN ATOMIC CHARGES
----------------------
   0 C :   -0.001763
   1 O :   -0.001535
   2 H :   -0.007923
   3 H :   -0.000017
   4 H :   -0.000007
   5 H :   -0.000553
   6 C :   -0.381078
   7 O :   -0.083547
   8 H :    0.165630
   9 H :    0.102213
  10 H :    0.104217
  11 H :    0.104365

  Mayer bond orders larger than 0.1
B(  6-C ,  7-O ) :   0.9990 B(  6-C ,  9-H ) :   0.9762 B(  6-C , 10-H ) :   0.9728
B(  6-C , 11-H ) :   0.9770 B(  7-O ,  8-H ) :   0.9046

Dispersion correction           -0.000255030
FINAL SINGLE POINT ENERGY      -115.728545956798

DIPOLE MOMENT
-------------
                                X             Y             Z
Electronic contribution:     -0.59857      -0.76237      -1.79751
Nuclear contribution   :      1.10778       0.61511       2.31410
                        -----------------------------------------
Total Dipole Moment    :      0.50921      -0.14726       0.51659
                        -----------------------------------------
Magnitude (a.u.)       :      0.74016
Magnitude (Debye)      :      1.88135

Rotational constants in cm-1:     4.227767     0.797998     0.772535
Rotational constants in MHz : 126745.253676 23923.378314 23160.025763

                             ****ORCA TERMINATED NORMALLY****
TOTAL RUN TIME: 0 days 0 hours 0 minutes 58 seconds 150 msec
