                         Program Version 4.1.2  - RELEASE  -
|  1> #Run DFT-D3 single point of the dimer
|  2> ! wB97X-D3 def2-TZVP TIGHTSCF CHELPG PMODEL PAL8
|  3>
|  4> %base "8-162_DFT_AB"
|  5>
|  6> %scf
|  7> MaxIter 1000
|  8> end
|  9>
| 10> * xyz 0 1
| 11>   C                      5.944907             -1.410275            8.821131
| 12>   O                      5.661752             -2.034981            10.047827
| 13>   H                      6.407531             -2.616065            10.283087
| 14>   H                      5.131365             -0.914269            8.387196
| 15>   H                      6.795903             -0.706590            8.955805
| 16>   H                      6.311007             -2.132486            8.079920
| 17>   C                      3.383848             -4.997898            8.775477
| 18>   O                      4.321349             -5.344710            9.793845
| 19>   H                      5.010987             -4.761969            9.925138
| 20>   H                      3.874750             -4.633568            7.908581
| 21>   H                      2.788686             -5.840481            8.401953
| 22>   H                      2.727648             -4.186402            9.122463
| 23> *
| 24>
| 25> #Run DFT-D3 single point of the molecule with dimer basis set
| 26> $new_job
| 27> %base "8-162_DFT_A"
| 28> ! wB97X-D3 def2-TZVP TIGHTSCF CHELPG PMODEL
| 29>
| 30> %scf
| 31> MaxIter 1000
| 32> end
| 33>
| 34> * xyz 0 1
| 35>   C                      5.944907             -1.410275            8.821131
| 36>   O                      5.661752             -2.034981            10.047827
| 37>   H                      6.407531             -2.616065            10.283087
| 38>   H                      5.131365             -0.914269            8.387196
| 39>   H                      6.795903             -0.706590            8.955805
| 40>   H                      6.311007             -2.132486            8.079920
| 41>   C                    : 3.383848             -4.997898            8.775477
| 42>   O                    : 4.321349             -5.344710            9.793845
| 43>   H                    : 5.010987             -4.761969            9.925138
| 44>   H                    : 3.874750             -4.633568            7.908581
| 45>   H                    : 2.788686             -5.840481            8.401953
| 46>   H                    : 2.727648             -4.186402            9.122463
| 47> *
| 48>
| 49> #Run DFT-D3 single point of the particle with dimer basis set
| 50> $new_job
| 51> %base "8-162_DFT_B"
| 52> ! wB97X-D3 def2-TZVP TIGHTSCF CHELPG PMODEL
| 53>
| 54> %scf
| 55> MaxIter 1000
| 56> end
| 57>
| 58> * xyz 0 1
| 59>   C                    : 5.944907             -1.410275            8.821131
| 60>   O                    : 5.661752             -2.034981            10.047827
| 61>   H                    : 6.407531             -2.616065            10.283087
| 62>   H                    : 5.131365             -0.914269            8.387196
| 63>   H                    : 6.795903             -0.706590            8.955805
| 64>   H                    : 6.311007             -2.132486            8.079920
| 65>   C                      3.383848             -4.997898            8.775477
| 66>   O                      4.321349             -5.344710            9.793845
| 67>   H                      5.010987             -4.761969            9.925138
| 68>   H                      3.874750             -4.633568            7.908581
| 69>   H                      2.788686             -5.840481            8.401953
| 70>   H                      2.727648             -4.186402            9.122463
| 71> *
| 72>
| 73>                          ****END OF INPUT****
 Total Charge           Charge          ....    0
 Multiplicity           Mult            ....    1
 Number of Electrons    NEL             ....   36
Dispersion correction           -0.001679682
FINAL SINGLE POINT ENERGY      -231.465839120416
Dispersion correction           -0.000230733
FINAL SINGLE POINT ENERGY      -115.734003612574

CARTESIAN COORDINATES (ANGSTROEM)
---------------------------------
  C      5.944907   -1.410275    8.821131
  O      5.661752   -2.034981   10.047827
  H      6.407531   -2.616065   10.283087
  H      5.131365   -0.914269    8.387196
  H      6.795903   -0.706590    8.955805
  H      6.311007   -2.132486    8.079920
  C      3.383848   -4.997898    8.775477
  O      4.321349   -5.344710    9.793845
  H      5.010987   -4.761969    9.925138
  H      3.874750   -4.633568    7.908581
  H      2.788686   -5.840481    8.401953
  H      2.727648   -4.186402    9.122463

 Multiplicity           Mult            ....    1
 Number of Electrons    NEL             ....   18
 Basis Dimension        Dim             ....  172

ORBITAL ENERGIES
----------------

  NO   OCC          E(Eh)            E(eV)
   0   2.0000     -19.221563      -523.0453
   1   2.0000     -10.313359      -280.6408
   2   2.0000      -1.135779       -30.9061
   3   2.0000      -0.806768       -21.9533
   4   2.0000      -0.618172       -16.8213
   5   2.0000      -0.541667       -14.7395
   6   2.0000      -0.528950       -14.3935
   7   2.0000      -0.424618       -11.5544
   8   2.0000      -0.374375       -10.1873
   9   0.0000       0.070343         1.9141
  10   0.0000       0.132153         3.5961
  11   0.0000       0.141138         3.8406
  12   0.0000       0.174611         4.7514
  13   0.0000       0.185772         5.0551

MULLIKEN ATOMIC CHARGES
-----------------------
   0 C :    0.000387
   1 O :   -0.001075
   2 H :   -0.000461
   3 H :   -0.000177
   4 H :    0.000008
   5 H :   -0.000279
   6 C :   -0.159605
   7 O :   -0.487235
   8 H :    0.308203
   9 H :    0.108371
  10 H :    0.126858
  11 H :    0.105006
Sum of atomic charges:   -0.0000000

LOEWDIN ATOMIC CHARGES
----------------------
   0 C :   -0.000706
   1 O :   -0.001965
   2 H :   -0.001599
   3 H :   -0.000043
   4 H :   -0.000006
   5 H :   -0.000171
   6 C :   -0.364375
   7 O :   -0.061908
   8 H :    0.131901
   9 H :    0.089282
  10 H :    0.111278
  11 H :    0.098312

  Mayer bond orders larger than 0.1
B(  6-C ,  7-O ) :   0.9823 B(  6-C ,  9-H ) :   0.9800 B(  6-C , 10-H ) :   0.9702
B(  6-C , 11-H ) :   0.9784 B(  7-O ,  8-H ) :   0.9101

Dispersion correction           -0.000257326
FINAL SINGLE POINT ENERGY      -115.730244562438

DIPOLE MOMENT
-------------
                                X             Y             Z
Electronic contribution:      1.11817      -0.57308       1.30863
Nuclear contribution   :     -1.03935       1.11381      -1.69063
                        -----------------------------------------
Total Dipole Moment    :      0.07882       0.54073      -0.38200
                        -----------------------------------------
Magnitude (a.u.)       :      0.66673
Magnitude (Debye)      :      1.69468

Rotational constants in cm-1:     4.598320     0.806368     0.785430
Rotational constants in MHz : 137854.163872 24174.301145 23546.603714

                             ****ORCA TERMINATED NORMALLY****
TOTAL RUN TIME: 0 days 0 hours 0 minutes 44 seconds 409 msec
