                         Program Version 4.1.2  - RELEASE  -
|  1> #Run DFT-D3 single point of the dimer
|  2> ! wB97X-D3 def2-TZVP TIGHTSCF CHELPG PMODEL PAL8
|  3>
|  4> %base "7-211_DFT_AB"
|  5>
|  6> %scf
|  7> MaxIter 1000
|  8> end
|  9>
| 10> * xyz 0 1
| 11>   C                      -11.295443           9.223032             8.700884
| 12>   O                      -9.892847            9.093159             8.688448
| 13>   H                      -9.680646            8.187656             8.839787
| 14>   H                      -11.743624           9.018829             7.762429
| 15>   H                      -11.616767           8.333848             9.275435
| 16>   H                      -11.685365           10.165059            9.078397
| 17>   C                      -10.666586           6.170004             7.379040
| 18>   O                      -9.388597            6.730115             7.666832
| 19>   H                      -9.030855            6.074726             8.273595
| 20>   H                      -10.579796           5.389328             6.632347
| 21>   H                      -11.206953           5.813961             8.258117
| 22>   H                      -11.338197           6.898254             6.829734
| 23> *
| 24>
| 25> #Run DFT-D3 single point of the molecule with dimer basis set
| 26> $new_job
| 27> %base "7-211_DFT_A"
| 28> ! wB97X-D3 def2-TZVP TIGHTSCF CHELPG PMODEL
| 29>
| 30> %scf
| 31> MaxIter 1000
| 32> end
| 33>
| 34> * xyz 0 1
| 35>   C                      -11.295443           9.223032             8.700884
| 36>   O                      -9.892847            9.093159             8.688448
| 37>   H                      -9.680646            8.187656             8.839787
| 38>   H                      -11.743624           9.018829             7.762429
| 39>   H                      -11.616767           8.333848             9.275435
| 40>   H                      -11.685365           10.165059            9.078397
| 41>   C                    : -10.666586           6.170004             7.379040
| 42>   O                    : -9.388597            6.730115             7.666832
| 43>   H                    : -9.030855            6.074726             8.273595
| 44>   H                    : -10.579796           5.389328             6.632347
| 45>   H                    : -11.206953           5.813961             8.258117
| 46>   H                    : -11.338197           6.898254             6.829734
| 47> *
| 48>
| 49> #Run DFT-D3 single point of the particle with dimer basis set
| 50> $new_job
| 51> %base "7-211_DFT_B"
| 52> ! wB97X-D3 def2-TZVP TIGHTSCF CHELPG PMODEL
| 53>
| 54> %scf
| 55> MaxIter 1000
| 56> end
| 57>
| 58> * xyz 0 1
| 59>   C                    : -11.295443           9.223032             8.700884
| 60>   O                    : -9.892847            9.093159             8.688448
| 61>   H                    : -9.680646            8.187656             8.839787
| 62>   H                    : -11.743624           9.018829             7.762429
| 63>   H                    : -11.616767           8.333848             9.275435
| 64>   H                    : -11.685365           10.165059            9.078397
| 65>   C                      -10.666586           6.170004             7.379040
| 66>   O                      -9.388597            6.730115             7.666832
| 67>   H                      -9.030855            6.074726             8.273595
| 68>   H                      -10.579796           5.389328             6.632347
| 69>   H                      -11.206953           5.813961             8.258117
| 70>   H                      -11.338197           6.898254             6.829734
| 71> *
| 72>
| 73>                          ****END OF INPUT****
 Total Charge           Charge          ....    0
 Multiplicity           Mult            ....    1
 Number of Electrons    NEL             ....   36
Dispersion correction           -0.002405670
FINAL SINGLE POINT ENERGY      -231.461278788122
Dispersion correction           -0.000223462
FINAL SINGLE POINT ENERGY      -115.728741529138

CARTESIAN COORDINATES (ANGSTROEM)
---------------------------------
  C    -11.295443    9.223032    8.700884
  O     -9.892847    9.093159    8.688448
  H     -9.680646    8.187656    8.839787
  H    -11.743624    9.018829    7.762429
  H    -11.616767    8.333848    9.275435
  H    -11.685365   10.165059    9.078397
  C    -10.666586    6.170004    7.379040
  O     -9.388597    6.730115    7.666832
  H     -9.030855    6.074726    8.273595
  H    -10.579796    5.389328    6.632347
  H    -11.206953    5.813961    8.258117
  H    -11.338197    6.898254    6.829734

 Multiplicity           Mult            ....    1
 Number of Electrons    NEL             ....   18
 Basis Dimension        Dim             ....  172

ORBITAL ENERGIES
----------------

  NO   OCC          E(Eh)            E(eV)
   0   2.0000     -19.235978      -523.4376
   1   2.0000     -10.317163      -280.7443
   2   2.0000      -1.139140       -30.9976
   3   2.0000      -0.792762       -21.5722
   4   2.0000      -0.607973       -16.5438
   5   2.0000      -0.545586       -14.8461
   6   2.0000      -0.522958       -14.2304
   7   2.0000      -0.439229       -11.9520
   8   2.0000      -0.376534       -10.2460
   9   0.0000       0.096118         2.6155
  10   0.0000       0.128576         3.4987
  11   0.0000       0.151078         4.1110
  12   0.0000       0.181289         4.9331
  13   0.0000       0.200681         5.4608

MULLIKEN ATOMIC CHARGES
-----------------------
   0 C :    0.011195
   1 O :    0.008589
   2 H :   -0.028042
   3 H :   -0.002147
   4 H :   -0.001453
   5 H :    0.000263
   6 C :   -0.203301
   7 O :   -0.448268
   8 H :    0.315341
   9 H :    0.113117
  10 H :    0.116777
  11 H :    0.117930
Sum of atomic charges:    0.0000000

LOEWDIN ATOMIC CHARGES
----------------------
   0 C :   -0.010066
   1 O :   -0.013733
   2 H :   -0.049238
   3 H :   -0.004240
   4 H :   -0.002037
   5 H :   -0.000050
   6 C :   -0.381738
   7 O :   -0.026858
   8 H :    0.175423
   9 H :    0.094618
  10 H :    0.097680
  11 H :    0.120240

  Mayer bond orders larger than 0.1
B(  6-C ,  7-O ) :   0.9918 B(  6-C ,  9-H ) :   0.9716 B(  6-C , 10-H ) :   0.9755
B(  6-C , 11-H ) :   0.9785 B(  7-O ,  8-H ) :   0.9006

Dispersion correction           -0.000239471
FINAL SINGLE POINT ENERGY      -115.733202286203

DIPOLE MOMENT
-------------
                                X             Y             Z
Electronic contribution:      1.68349       0.82962       0.38654
Nuclear contribution   :     -1.96673      -1.45827      -0.14563
                        -----------------------------------------
Total Dipole Moment    :     -0.28324      -0.62865       0.24091
                        -----------------------------------------
Magnitude (a.u.)       :      0.73039
Magnitude (Debye)      :      1.85649

Rotational constants in cm-1:     4.254822     0.822264     0.788882
Rotational constants in MHz : 127556.355975 24650.868821 23650.100709

                             ****ORCA TERMINATED NORMALLY****
TOTAL RUN TIME: 0 days 0 hours 1 minutes 11 seconds 98 msec
