                         Program Version 4.1.2  - RELEASE  -
|  1> #Run DFT-D3 single point of the dimer
|  2> ! wB97X-D3 def2-TZVP TIGHTSCF CHELPG PMODEL PAL8
|  3>
|  4> %base "20-94_DFT_AB"
|  5>
|  6> %scf
|  7> MaxIter 1000
|  8> end
|  9>
| 10> * xyz 0 1
| 11>   C                      -5.619514            -0.230082            9.710258
| 12>   O                      -5.919557            0.391140             10.949691
| 13>   H                      -5.148180            1.017697             11.036180
| 14>   H                      -6.402927            -0.922974            9.360529
| 15>   H                      -5.635728            0.617874             8.986753
| 16>   H                      -4.641547            -0.829193            9.755749
| 17>   C                      -6.184725            -4.220576            10.452966
| 18>   O                      -7.067436            -4.161056            9.358725
| 19>   H                      -7.882666            -3.719106            9.725365
| 20>   H                      -6.778696            -4.613099            11.296898
| 21>   H                      -5.390157            -5.001582            10.301594
| 22>   H                      -5.695064            -3.259935            10.764297
| 23> *
| 24>
| 25> #Run DFT-D3 single point of the molecule with dimer basis set
| 26> $new_job
| 27> %base "20-94_DFT_A"
| 28> ! wB97X-D3 def2-TZVP TIGHTSCF CHELPG PMODEL
| 29>
| 30> %scf
| 31> MaxIter 1000
| 32> end
| 33>
| 34> * xyz 0 1
| 35>   C                      -5.619514            -0.230082            9.710258
| 36>   O                      -5.919557            0.391140             10.949691
| 37>   H                      -5.148180            1.017697             11.036180
| 38>   H                      -6.402927            -0.922974            9.360529
| 39>   H                      -5.635728            0.617874             8.986753
| 40>   H                      -4.641547            -0.829193            9.755749
| 41>   C                    : -6.184725            -4.220576            10.452966
| 42>   O                    : -7.067436            -4.161056            9.358725
| 43>   H                    : -7.882666            -3.719106            9.725365
| 44>   H                    : -6.778696            -4.613099            11.296898
| 45>   H                    : -5.390157            -5.001582            10.301594
| 46>   H                    : -5.695064            -3.259935            10.764297
| 47> *
| 48>
| 49> #Run DFT-D3 single point of the particle with dimer basis set
| 50> $new_job
| 51> %base "20-94_DFT_B"
| 52> ! wB97X-D3 def2-TZVP TIGHTSCF CHELPG PMODEL
| 53>
| 54> %scf
| 55> MaxIter 1000
| 56> end
| 57>
| 58> * xyz 0 1
| 59>   C                    : -5.619514            -0.230082            9.710258
| 60>   O                    : -5.919557            0.391140             10.949691
| 61>   H                    : -5.148180            1.017697             11.036180
| 62>   H                    : -6.402927            -0.922974            9.360529
| 63>   H                    : -5.635728            0.617874             8.986753
| 64>   H                    : -4.641547            -0.829193            9.755749
| 65>   C                      -6.184725            -4.220576            10.452966
| 66>   O                      -7.067436            -4.161056            9.358725
| 67>   H                      -7.882666            -3.719106            9.725365
| 68>   H                      -6.778696            -4.613099            11.296898
| 69>   H                      -5.390157            -5.001582            10.301594
| 70>   H                      -5.695064            -3.259935            10.764297
| 71> *
| 72>
| 73>                          ****END OF INPUT****
 Total Charge           Charge          ....    0
 Multiplicity           Mult            ....    1
 Number of Electrons    NEL             ....   36
Dispersion correction           -0.001472336
FINAL SINGLE POINT ENERGY      -231.461885688417
Dispersion correction           -0.000228326
FINAL SINGLE POINT ENERGY      -115.728450466189

CARTESIAN COORDINATES (ANGSTROEM)
---------------------------------
  C     -5.619514   -0.230082    9.710258
  O     -5.919557    0.391140   10.949691
  H     -5.148180    1.017697   11.036180
  H     -6.402927   -0.922974    9.360529
  H     -5.635728    0.617874    8.986753
  H     -4.641547   -0.829193    9.755749
  C     -6.184725   -4.220576   10.452966
  O     -7.067436   -4.161056    9.358725
  H     -7.882666   -3.719106    9.725365
  H     -6.778696   -4.613099   11.296898
  H     -5.390157   -5.001582   10.301594
  H     -5.695064   -3.259935   10.764297

 Multiplicity           Mult            ....    1
 Number of Electrons    NEL             ....   18
 Basis Dimension        Dim             ....  172

ORBITAL ENERGIES
----------------

  NO   OCC          E(Eh)            E(eV)
   0   2.0000     -19.237088      -523.4678
   1   2.0000     -10.319713      -280.8137
   2   2.0000      -1.136175       -30.9169
   3   2.0000      -0.785325       -21.3698
   4   2.0000      -0.606698       -16.5091
   5   2.0000      -0.542434       -14.7604
   6   2.0000      -0.526359       -14.3230
   7   2.0000      -0.430119       -11.7041
   8   2.0000      -0.374192       -10.1823
   9   0.0000       0.084003         2.2858
  10   0.0000       0.113898         3.0993
  11   0.0000       0.150102         4.0845
  12   0.0000       0.172851         4.7035
  13   0.0000       0.187597         5.1048

MULLIKEN ATOMIC CHARGES
-----------------------
   0 C :    0.003330
   1 O :   -0.000119
   2 H :   -0.000015
   3 H :   -0.004740
   4 H :    0.000040
   5 H :   -0.000484
   6 C :   -0.175129
   7 O :   -0.462548
   8 H :    0.320459
   9 H :    0.103508
  10 H :    0.119728
  11 H :    0.095969
Sum of atomic charges:    0.0000000

LOEWDIN ATOMIC CHARGES
----------------------
   0 C :   -0.003152
   1 O :   -0.000054
   2 H :   -0.000005
   3 H :   -0.002303
   4 H :   -0.000016
   5 H :   -0.001091
   6 C :   -0.408080
   7 O :   -0.086189
   8 H :    0.194410
   9 H :    0.096593
  10 H :    0.112372
  11 H :    0.097514

  Mayer bond orders larger than 0.1
B(  6-C ,  7-O ) :   1.0055 B(  6-C ,  9-H ) :   0.9918 B(  6-C , 10-H ) :   0.9732
B(  6-C , 11-H ) :   0.9607 B(  7-O ,  8-H ) :   0.8928

Dispersion correction           -0.000243159
FINAL SINGLE POINT ENERGY      -115.731638007714

DIPOLE MOMENT
-------------
                                X             Y             Z
Electronic contribution:     -1.00285       0.09114      -1.62539
Nuclear contribution   :      0.82151       0.12545       2.26872
                        -----------------------------------------
Total Dipole Moment    :     -0.18134       0.21659       0.64333
                        -----------------------------------------
Magnitude (a.u.)       :      0.70262
Magnitude (Debye)      :      1.78591

Rotational constants in cm-1:     4.109383     0.832082     0.802676
Rotational constants in MHz : 123196.203511 24945.185790 24063.627133

                             ****ORCA TERMINATED NORMALLY****
TOTAL RUN TIME: 0 days 0 hours 0 minutes 51 seconds 427 msec
