                         Program Version 4.1.2  - RELEASE  -
|  1> #Run DFT-D3 single point of the dimer
|  2> ! wB97X-D3 def2-TZVP TIGHTSCF CHELPG PMODEL PAL8
|  3>
|  4> %base "11-3_DFT_AB"
|  5>
|  6> %scf
|  7> MaxIter 1000
|  8> end
|  9>
| 10> * xyz 0 1
| 11>   C                      -2.148013            2.129847             1.911966
| 12>   O                      -0.703100            2.202816             2.039990
| 13>   H                      -0.327344            2.930984             1.522731
| 14>   H                      -2.414317            2.238284             0.914172
| 15>   H                      -2.582117            1.155431             2.198879
| 16>   H                      -2.594961            2.946416             2.554262
| 17>   C                      1.565606             4.818952             4.063144
| 18>   O                      0.685042             5.590373             4.790445
| 19>   H                      1.050737             6.522268             4.825861
| 20>   H                      1.151553             3.796714             3.883376
| 21>   H                      1.753708             5.189912             3.077792
| 22>   H                      2.481122             4.505478             4.613110
| 23> *
| 24>
| 25> #Run DFT-D3 single point of the molecule with dimer basis set
| 26> $new_job
| 27> %base "11-3_DFT_A"
| 28> ! wB97X-D3 def2-TZVP TIGHTSCF CHELPG PMODEL
| 29>
| 30> %scf
| 31> MaxIter 1000
| 32> end
| 33>
| 34> * xyz 0 1
| 35>   C                      -2.148013            2.129847             1.911966
| 36>   O                      -0.703100            2.202816             2.039990
| 37>   H                      -0.327344            2.930984             1.522731
| 38>   H                      -2.414317            2.238284             0.914172
| 39>   H                      -2.582117            1.155431             2.198879
| 40>   H                      -2.594961            2.946416             2.554262
| 41>   C                    : 1.565606             4.818952             4.063144
| 42>   O                    : 0.685042             5.590373             4.790445
| 43>   H                    : 1.050737             6.522268             4.825861
| 44>   H                    : 1.151553             3.796714             3.883376
| 45>   H                    : 1.753708             5.189912             3.077792
| 46>   H                    : 2.481122             4.505478             4.613110
| 47> *
| 48>
| 49> #Run DFT-D3 single point of the particle with dimer basis set
| 50> $new_job
| 51> %base "11-3_DFT_B"
| 52> ! wB97X-D3 def2-TZVP TIGHTSCF CHELPG PMODEL
| 53>
| 54> %scf
| 55> MaxIter 1000
| 56> end
| 57>
| 58> * xyz 0 1
| 59>   C                    : -2.148013            2.129847             1.911966
| 60>   O                    : -0.703100            2.202816             2.039990
| 61>   H                    : -0.327344            2.930984             1.522731
| 62>   H                    : -2.414317            2.238284             0.914172
| 63>   H                    : -2.582117            1.155431             2.198879
| 64>   H                    : -2.594961            2.946416             2.554262
| 65>   C                      1.565606             4.818952             4.063144
| 66>   O                      0.685042             5.590373             4.790445
| 67>   H                      1.050737             6.522268             4.825861
| 68>   H                      1.151553             3.796714             3.883376
| 69>   H                      1.753708             5.189912             3.077792
| 70>   H                      2.481122             4.505478             4.613110
| 71> *
| 72>
| 73>                          ****END OF INPUT****
 Total Charge           Charge          ....    0
 Multiplicity           Mult            ....    1
 Number of Electrons    NEL             ....   36
Dispersion correction           -0.001188478
FINAL SINGLE POINT ENERGY      -231.461566567164
Dispersion correction           -0.000260017
FINAL SINGLE POINT ENERGY      -115.730262642617

CARTESIAN COORDINATES (ANGSTROEM)
---------------------------------
  C     -2.148013    2.129847    1.911966
  O     -0.703100    2.202816    2.039990
  H     -0.327344    2.930984    1.522731
  H     -2.414317    2.238284    0.914172
  H     -2.582117    1.155431    2.198879
  H     -2.594961    2.946416    2.554262
  C      1.565606    4.818952    4.063144
  O      0.685042    5.590373    4.790445
  H      1.050737    6.522268    4.825861
  H      1.151553    3.796714    3.883376
  H      1.753708    5.189912    3.077792
  H      2.481122    4.505478    4.613110

 Multiplicity           Mult            ....    1
 Number of Electrons    NEL             ....   18
 Basis Dimension        Dim             ....  172

ORBITAL ENERGIES
----------------

  NO   OCC          E(Eh)            E(eV)
   0   2.0000     -19.237109      -523.4684
   1   2.0000     -10.310030      -280.5502
   2   2.0000      -1.141776       -31.0693
   3   2.0000      -0.791238       -21.5307
   4   2.0000      -0.611554       -16.6412
   5   2.0000      -0.552012       -15.0210
   6   2.0000      -0.526747       -14.3335
   7   2.0000      -0.421076       -11.4581
   8   2.0000      -0.374648       -10.1947
   9   0.0000       0.088630         2.4118
  10   0.0000       0.113694         3.0938
  11   0.0000       0.142866         3.8876
  12   0.0000       0.181397         4.9361
  13   0.0000       0.187190         5.0937

MULLIKEN ATOMIC CHARGES
-----------------------
   0 C :   -0.000018
   1 O :    0.000139
   2 H :   -0.000538
   3 H :    0.000000
   4 H :    0.000009
   5 H :    0.000004
   6 C :   -0.160760
   7 O :   -0.461085
   8 H :    0.320352
   9 H :    0.109075
  10 H :    0.100903
  11 H :    0.091919
Sum of atomic charges:    0.0000000

LOEWDIN ATOMIC CHARGES
----------------------
   0 C :   -0.000153
   1 O :   -0.001199
   2 H :   -0.001230
   3 H :   -0.000003
   4 H :   -0.000002
   5 H :   -0.000025
   6 C :   -0.430220
   7 O :   -0.063438
   8 H :    0.197645
   9 H :    0.113264
  10 H :    0.088990
  11 H :    0.096369

  Mayer bond orders larger than 0.1
B(  6-C ,  7-O ) :   1.0230 B(  6-C ,  9-H ) :   0.9722 B(  6-C , 10-H ) :   0.9784
B(  6-C , 11-H ) :   0.9726 B(  7-O ,  8-H ) :   0.8891

Dispersion correction           -0.000248948
FINAL SINGLE POINT ENERGY      -115.730434832918

DIPOLE MOMENT
-------------
                                X             Y             Z
Electronic contribution:     -1.25246       1.11515       0.97756
Nuclear contribution   :      1.78665      -0.83439      -1.23646
                        -----------------------------------------
Total Dipole Moment    :      0.53419       0.28076      -0.25890
                        -----------------------------------------
Magnitude (a.u.)       :      0.65667
Magnitude (Debye)      :      1.66913

Rotational constants in cm-1:     4.330650     0.848448     0.824106
Rotational constants in MHz : 129829.612575 25435.839313 24706.083386

                             ****ORCA TERMINATED NORMALLY****
TOTAL RUN TIME: 0 days 0 hours 1 minutes 10 seconds 23 msec
