                         Program Version 4.1.2  - RELEASE  -
|  1> #Run DFT-D3 single point of the dimer
|  2> ! wB97X-D3 def2-TZVP TIGHTSCF CHELPG PMODEL PAL8
|  3>
|  4> %base "13-189_DFT_AB"
|  5>
|  6> %scf
|  7> MaxIter 1000
|  8> end
|  9>
| 10> * xyz 0 1
| 11>   C                      -2.181181            -5.409228            -7.542466
| 12>   O                      -1.017971            -6.040588            -7.956332
| 13>   H                      -0.773341            -5.627400            -8.783490
| 14>   H                      -2.728610            -5.955657            -6.771430
| 15>   H                      -1.854823            -4.456523            -7.048018
| 16>   H                      -2.890129            -5.217348            -8.402105
| 17>   C                      0.518958             -7.221498            -10.914147
| 18>   O                      -0.595599            -6.350672            -10.940867
| 19>   H                      -1.305709            -6.857466            -11.376810
| 20>   H                      0.771555             -7.536177            -9.928097
| 21>   H                      0.492879             -8.197165            -11.491683
| 22>   H                      1.257595             -6.624685            -11.503031
| 23> *
| 24>
| 25> #Run DFT-D3 single point of the molecule with dimer basis set
| 26> $new_job
| 27> %base "13-189_DFT_A"
| 28> ! wB97X-D3 def2-TZVP TIGHTSCF CHELPG PMODEL
| 29>
| 30> %scf
| 31> MaxIter 1000
| 32> end
| 33>
| 34> * xyz 0 1
| 35>   C                      -2.181181            -5.409228            -7.542466
| 36>   O                      -1.017971            -6.040588            -7.956332
| 37>   H                      -0.773341            -5.627400            -8.783490
| 38>   H                      -2.728610            -5.955657            -6.771430
| 39>   H                      -1.854823            -4.456523            -7.048018
| 40>   H                      -2.890129            -5.217348            -8.402105
| 41>   C                    : 0.518958             -7.221498            -10.914147
| 42>   O                    : -0.595599            -6.350672            -10.940867
| 43>   H                    : -1.305709            -6.857466            -11.376810
| 44>   H                    : 0.771555             -7.536177            -9.928097
| 45>   H                    : 0.492879             -8.197165            -11.491683
| 46>   H                    : 1.257595             -6.624685            -11.503031
| 47> *
| 48>
| 49> #Run DFT-D3 single point of the particle with dimer basis set
| 50> $new_job
| 51> %base "13-189_DFT_B"
| 52> ! wB97X-D3 def2-TZVP TIGHTSCF CHELPG PMODEL
| 53>
| 54> %scf
| 55> MaxIter 1000
| 56> end
| 57>
| 58> * xyz 0 1
| 59>   C                    : -2.181181            -5.409228            -7.542466
| 60>   O                    : -1.017971            -6.040588            -7.956332
| 61>   H                    : -0.773341            -5.627400            -8.783490
| 62>   H                    : -2.728610            -5.955657            -6.771430
| 63>   H                    : -1.854823            -4.456523            -7.048018
| 64>   H                    : -2.890129            -5.217348            -8.402105
| 65>   C                      0.518958             -7.221498            -10.914147
| 66>   O                      -0.595599            -6.350672            -10.940867
| 67>   H                      -1.305709            -6.857466            -11.376810
| 68>   H                      0.771555             -7.536177            -9.928097
| 69>   H                      0.492879             -8.197165            -11.491683
| 70>   H                      1.257595             -6.624685            -11.503031
| 71> *
| 72>
| 73>                          ****END OF INPUT****
 Total Charge           Charge          ....    0
 Multiplicity           Mult            ....    1
 Number of Electrons    NEL             ....   36
Dispersion correction           -0.001693085
FINAL SINGLE POINT ENERGY      -231.465230950544
Dispersion correction           -0.000226136
FINAL SINGLE POINT ENERGY      -115.733277000070

CARTESIAN COORDINATES (ANGSTROEM)
---------------------------------
  C     -2.181181   -5.409228   -7.542466
  O     -1.017971   -6.040588   -7.956332
  H     -0.773341   -5.627400   -8.783490
  H     -2.728610   -5.955657   -6.771430
  H     -1.854823   -4.456523   -7.048018
  H     -2.890129   -5.217348   -8.402105
  C      0.518958   -7.221498  -10.914147
  O     -0.595599   -6.350672  -10.940867
  H     -1.305709   -6.857466  -11.376810
  H      0.771555   -7.536177   -9.928097
  H      0.492879   -8.197165  -11.491683
  H      1.257595   -6.624685  -11.503031

 Multiplicity           Mult            ....    1
 Number of Electrons    NEL             ....   18
 Basis Dimension        Dim             ....  172

ORBITAL ENERGIES
----------------

  NO   OCC          E(Eh)            E(eV)
   0   2.0000     -19.234204      -523.3893
   1   2.0000     -10.315797      -280.7071
   2   2.0000      -1.136699       -30.9311
   3   2.0000      -0.791111       -21.5272
   4   2.0000      -0.611775       -16.6473
   5   2.0000      -0.555355       -15.1120
   6   2.0000      -0.508267       -13.8306
   7   2.0000      -0.430695       -11.7198
   8   2.0000      -0.375654       -10.2221
   9   0.0000       0.096147         2.6163
  10   0.0000       0.119847         3.2612
  11   0.0000       0.151683         4.1275
  12   0.0000       0.173766         4.7284
  13   0.0000       0.193192         5.2570

MULLIKEN ATOMIC CHARGES
-----------------------
   0 C :   -0.001952
   1 O :   -0.000933
   2 H :   -0.001627
   3 H :    0.000005
   4 H :   -0.000084
   5 H :   -0.000981
   6 C :   -0.180470
   7 O :   -0.465517
   8 H :    0.317376
   9 H :    0.113819
  10 H :    0.105375
  11 H :    0.114989
Sum of atomic charges:    0.0000000

LOEWDIN ATOMIC CHARGES
----------------------
   0 C :   -0.001978
   1 O :   -0.004301
   2 H :   -0.018226
   3 H :   -0.000013
   4 H :   -0.000024
   5 H :   -0.000615
   6 C :   -0.396941
   7 O :   -0.064521
   8 H :    0.179533
   9 H :    0.092031
  10 H :    0.103281
  11 H :    0.111775

  Mayer bond orders larger than 0.1
B(  6-C ,  7-O ) :   0.9925 B(  6-C ,  9-H ) :   0.9697 B(  6-C , 10-H ) :   0.9718
B(  6-C , 11-H ) :   0.9838 B(  7-O ,  8-H ) :   0.8975

Dispersion correction           -0.000256838
FINAL SINGLE POINT ENERGY      -115.725814570881

DIPOLE MOMENT
-------------
                                X             Y             Z
Electronic contribution:     -1.41405       1.21975       0.18854
Nuclear contribution   :      1.37567      -1.89536      -0.47720
                        -----------------------------------------
Total Dipole Moment    :     -0.03837      -0.67561      -0.28866
                        -----------------------------------------
Magnitude (a.u.)       :      0.73569
Magnitude (Debye)      :      1.86998

Rotational constants in cm-1:     4.213781     0.823336     0.805397
Rotational constants in MHz : 126325.965602 24683.005222 24145.183118

                             ****ORCA TERMINATED NORMALLY****
TOTAL RUN TIME: 0 days 0 hours 1 minutes 12 seconds 582 msec
