                         Program Version 4.1.2  - RELEASE  -
|  1> #Run DFT-D3 single point of the dimer
|  2> ! wB97X-D3 def2-TZVP TIGHTSCF CHELPG PMODEL PAL8
|  3>
|  4> %base "13-196_DFT_AB"
|  5>
|  6> %scf
|  7> MaxIter 1000
|  8> end
|  9>
| 10> * xyz 0 1
| 11>   C                      -9.513063            -5.508502            -5.545523
| 12>   O                      -8.300979            -4.766045            -5.565556
| 13>   H                      -8.323030            -4.099855            -4.848389
| 14>   H                      -9.644710            -6.145796            -4.637495
| 15>   H                      -10.425051           -4.859244            -5.619301
| 16>   H                      -9.530711            -6.180025            -6.435499
| 17>   C                      -5.779180            -3.428768            -7.105090
| 18>   O                      -6.965934            -3.671722            -7.741450
| 19>   H                      -7.515566            -4.048091            -7.069416
| 20>   H                      -5.275618            -4.387856            -6.873689
| 21>   H                      -5.084575            -2.798522            -7.654741
| 22>   H                      -5.954719            -2.892347            -6.155258
| 23> *
| 24>
| 25> #Run DFT-D3 single point of the molecule with dimer basis set
| 26> $new_job
| 27> %base "13-196_DFT_A"
| 28> ! wB97X-D3 def2-TZVP TIGHTSCF CHELPG PMODEL
| 29>
| 30> %scf
| 31> MaxIter 1000
| 32> end
| 33>
| 34> * xyz 0 1
| 35>   C                      -9.513063            -5.508502            -5.545523
| 36>   O                      -8.300979            -4.766045            -5.565556
| 37>   H                      -8.323030            -4.099855            -4.848389
| 38>   H                      -9.644710            -6.145796            -4.637495
| 39>   H                      -10.425051           -4.859244            -5.619301
| 40>   H                      -9.530711            -6.180025            -6.435499
| 41>   C                    : -5.779180            -3.428768            -7.105090
| 42>   O                    : -6.965934            -3.671722            -7.741450
| 43>   H                    : -7.515566            -4.048091            -7.069416
| 44>   H                    : -5.275618            -4.387856            -6.873689
| 45>   H                    : -5.084575            -2.798522            -7.654741
| 46>   H                    : -5.954719            -2.892347            -6.155258
| 47> *
| 48>
| 49> #Run DFT-D3 single point of the particle with dimer basis set
| 50> $new_job
| 51> %base "13-196_DFT_B"
| 52> ! wB97X-D3 def2-TZVP TIGHTSCF CHELPG PMODEL
| 53>
| 54> %scf
| 55> MaxIter 1000
| 56> end
| 57>
| 58> * xyz 0 1
| 59>   C                    : -9.513063            -5.508502            -5.545523
| 60>   O                    : -8.300979            -4.766045            -5.565556
| 61>   H                    : -8.323030            -4.099855            -4.848389
| 62>   H                    : -9.644710            -6.145796            -4.637495
| 63>   H                    : -10.425051           -4.859244            -5.619301
| 64>   H                    : -9.530711            -6.180025            -6.435499
| 65>   C                      -5.779180            -3.428768            -7.105090
| 66>   O                      -6.965934            -3.671722            -7.741450
| 67>   H                      -7.515566            -4.048091            -7.069416
| 68>   H                      -5.275618            -4.387856            -6.873689
| 69>   H                      -5.084575            -2.798522            -7.654741
| 70>   H                      -5.954719            -2.892347            -6.155258
| 71> *
| 72>
| 73>                          ****END OF INPUT****
 Total Charge           Charge          ....    0
 Multiplicity           Mult            ....    1
 Number of Electrons    NEL             ....   36
Dispersion correction           -0.001817325
FINAL SINGLE POINT ENERGY      -231.478322848072
Dispersion correction           -0.000267229
FINAL SINGLE POINT ENERGY      -115.736279893346

CARTESIAN COORDINATES (ANGSTROEM)
---------------------------------
  C     -9.513063   -5.508502   -5.545523
  O     -8.300979   -4.766045   -5.565556
  H     -8.323030   -4.099855   -4.848389
  H     -9.644710   -6.145796   -4.637495
  H    -10.425051   -4.859244   -5.619301
  H     -9.530711   -6.180025   -6.435499
  C     -5.779180   -3.428768   -7.105090
  O     -6.965934   -3.671722   -7.741450
  H     -7.515566   -4.048091   -7.069416
  H     -5.275618   -4.387856   -6.873689
  H     -5.084575   -2.798522   -7.654741
  H     -5.954719   -2.892347   -6.155258

 Multiplicity           Mult            ....    1
 Number of Electrons    NEL             ....   18
 Basis Dimension        Dim             ....  172

ORBITAL ENERGIES
----------------

  NO   OCC          E(Eh)            E(eV)
   0   2.0000     -19.230689      -523.2936
   1   2.0000     -10.311589      -280.5926
   2   2.0000      -1.157775       -31.5047
   3   2.0000      -0.791997       -21.5513
   4   2.0000      -0.619835       -16.8666
   5   2.0000      -0.549137       -14.9428
   6   2.0000      -0.537558       -14.6277
   7   2.0000      -0.432261       -11.7624
   8   2.0000      -0.371151       -10.0995
   9   0.0000       0.068501         1.8640
  10   0.0000       0.127834         3.4786
  11   0.0000       0.158210         4.3051
  12   0.0000       0.166471         4.5299
  13   0.0000       0.190731         5.1901

MULLIKEN ATOMIC CHARGES
-----------------------
   0 C :   -0.001083
   1 O :   -0.005553
   2 H :   -0.000126
   3 H :    0.000029
   4 H :   -0.000038
   5 H :   -0.000491
   6 C :   -0.166792
   7 O :   -0.451943
   8 H :    0.316558
   9 H :    0.094371
  10 H :    0.119062
  11 H :    0.096006
Sum of atomic charges:   -0.0000000

LOEWDIN ATOMIC CHARGES
----------------------
   0 C :   -0.003323
   1 O :   -0.024308
   2 H :   -0.001952
   3 H :   -0.000064
   4 H :   -0.000089
   5 H :   -0.000368
   6 C :   -0.422259
   7 O :   -0.022732
   8 H :    0.178427
   9 H :    0.095819
  10 H :    0.105132
  11 H :    0.095718

  Mayer bond orders larger than 0.1
B(  6-C ,  7-O ) :   0.9918 B(  6-C ,  9-H ) :   0.9805 B(  6-C , 10-H ) :   0.9717
B(  6-C , 11-H ) :   0.9834 B(  7-O ,  8-H ) :   0.9107

Dispersion correction           -0.000207647
FINAL SINGLE POINT ENERGY      -115.733534896399

DIPOLE MOMENT
-------------
                                X             Y             Z
Electronic contribution:     -1.54556      -0.24317      -1.09086
Nuclear contribution   :      1.62989       0.11595       1.73460
                        -----------------------------------------
Total Dipole Moment    :      0.08432      -0.12721       0.64374
                        -----------------------------------------
Magnitude (a.u.)       :      0.66159
Magnitude (Debye)      :      1.68162

Rotational constants in cm-1:     4.291450     0.876752     0.847560
Rotational constants in MHz : 128654.433871 26284.370149 25409.201207

                             ****ORCA TERMINATED NORMALLY****
TOTAL RUN TIME: 0 days 0 hours 1 minutes 11 seconds 576 msec
