                         Program Version 4.1.2  - RELEASE  -
|  1> #Run DFT-D3 single point of the dimer
|  2> ! wB97X-D3 def2-TZVP TIGHTSCF CHELPG PMODEL PAL8
|  3>
|  4> %base "18-91_DFT_AB"
|  5>
|  6> %scf
|  7> MaxIter 1000
|  8> end
|  9>
| 10> * xyz 0 1
| 11>   C                      1.101496             -2.053978            7.307832
| 12>   O                      1.384987             -2.297058            5.969188
| 13>   H                      1.151471             -3.185395            5.702275
| 14>   H                      1.317104             -1.048099            7.698919
| 15>   H                      0.046442             -2.231063            7.406682
| 16>   H                      1.610017             -2.809292            7.907819
| 17>   C                      -1.585481            -5.417352            8.139002
| 18>   O                      -0.400419            -4.728151            8.321004
| 19>   H                      -0.305728            -4.570493            9.263091
| 20>   H                      -2.411787            -4.838300            8.517041
| 21>   H                      -1.681065            -5.646437            7.021647
| 22>   H                      -1.719806            -6.426538            8.682570
| 23> *
| 24>
| 25> #Run DFT-D3 single point of the molecule with dimer basis set
| 26> $new_job
| 27> %base "18-91_DFT_A"
| 28> ! wB97X-D3 def2-TZVP TIGHTSCF CHELPG PMODEL
| 29>
| 30> %scf
| 31> MaxIter 1000
| 32> end
| 33>
| 34> * xyz 0 1
| 35>   C                      1.101496             -2.053978            7.307832
| 36>   O                      1.384987             -2.297058            5.969188
| 37>   H                      1.151471             -3.185395            5.702275
| 38>   H                      1.317104             -1.048099            7.698919
| 39>   H                      0.046442             -2.231063            7.406682
| 40>   H                      1.610017             -2.809292            7.907819
| 41>   C                    : -1.585481            -5.417352            8.139002
| 42>   O                    : -0.400419            -4.728151            8.321004
| 43>   H                    : -0.305728            -4.570493            9.263091
| 44>   H                    : -2.411787            -4.838300            8.517041
| 45>   H                    : -1.681065            -5.646437            7.021647
| 46>   H                    : -1.719806            -6.426538            8.682570
| 47> *
| 48>
| 49> #Run DFT-D3 single point of the particle with dimer basis set
| 50> $new_job
| 51> %base "18-91_DFT_B"
| 52> ! wB97X-D3 def2-TZVP TIGHTSCF CHELPG PMODEL
| 53>
| 54> %scf
| 55> MaxIter 1000
| 56> end
| 57>
| 58> * xyz 0 1
| 59>   C                    : 1.101496             -2.053978            7.307832
| 60>   O                    : 1.384987             -2.297058            5.969188
| 61>   H                    : 1.151471             -3.185395            5.702275
| 62>   H                    : 1.317104             -1.048099            7.698919
| 63>   H                    : 0.046442             -2.231063            7.406682
| 64>   H                    : 1.610017             -2.809292            7.907819
| 65>   C                      -1.585481            -5.417352            8.139002
| 66>   O                      -0.400419            -4.728151            8.321004
| 67>   H                      -0.305728            -4.570493            9.263091
| 68>   H                      -2.411787            -4.838300            8.517041
| 69>   H                      -1.681065            -5.646437            7.021647
| 70>   H                      -1.719806            -6.426538            8.682570
| 71> *
| 72>
| 73>                          ****END OF INPUT****
 Total Charge           Charge          ....    0
 Multiplicity           Mult            ....    1
 Number of Electrons    NEL             ....   36
Dispersion correction           -0.001727629
FINAL SINGLE POINT ENERGY      -231.464105288683
Dispersion correction           -0.000215820
FINAL SINGLE POINT ENERGY      -115.730545562988

CARTESIAN COORDINATES (ANGSTROEM)
---------------------------------
  C      1.101496   -2.053978    7.307832
  O      1.384987   -2.297058    5.969188
  H      1.151471   -3.185395    5.702275
  H      1.317104   -1.048099    7.698919
  H      0.046442   -2.231063    7.406682
  H      1.610017   -2.809292    7.907819
  C     -1.585481   -5.417352    8.139002
  O     -0.400419   -4.728151    8.321004
  H     -0.305728   -4.570493    9.263091
  H     -2.411787   -4.838300    8.517041
  H     -1.681065   -5.646437    7.021647
  H     -1.719806   -6.426538    8.682570

 Multiplicity           Mult            ....    1
 Number of Electrons    NEL             ....   18
 Basis Dimension        Dim             ....  172

ORBITAL ENERGIES
----------------

  NO   OCC          E(Eh)            E(eV)
   0   2.0000     -19.235352      -523.4205
   1   2.0000     -10.320366      -280.8314
   2   2.0000      -1.150173       -31.2978
   3   2.0000      -0.788112       -21.4456
   4   2.0000      -0.621963       -16.9245
   5   2.0000      -0.540740       -14.7143
   6   2.0000      -0.522774       -14.2254
   7   2.0000      -0.435470       -11.8497
   8   2.0000      -0.371511       -10.1093
   9   0.0000       0.096196         2.6176
  10   0.0000       0.127036         3.4568
  11   0.0000       0.150006         4.0819
  12   0.0000       0.171177         4.6580
  13   0.0000       0.195655         5.3240

MULLIKEN ATOMIC CHARGES
-----------------------
   0 C :    0.014778
   1 O :   -0.000732
   2 H :   -0.001926
   3 H :    0.000040
   4 H :   -0.012476
   5 H :   -0.006089
   6 C :   -0.159515
   7 O :   -0.456786
   8 H :    0.314771
   9 H :    0.102421
  10 H :    0.118058
  11 H :    0.087457
Sum of atomic charges:    0.0000000

LOEWDIN ATOMIC CHARGES
----------------------
   0 C :   -0.012049
   1 O :   -0.000062
   2 H :   -0.000746
   3 H :   -0.000078
   4 H :   -0.007968
   5 H :   -0.003940
   6 C :   -0.423371
   7 O :   -0.031492
   8 H :    0.173461
   9 H :    0.088042
  10 H :    0.119165
  11 H :    0.099038

  Mayer bond orders larger than 0.1
B(  6-C ,  7-O ) :   0.9982 B(  6-C ,  9-H ) :   0.9772 B(  6-C , 10-H ) :   0.9750
B(  6-C , 11-H ) :   0.9620 B(  7-O ,  8-H ) :   0.8960

Dispersion correction           -0.000244943
FINAL SINGLE POINT ENERGY      -115.731567566003

DIPOLE MOMENT
-------------
                                X             Y             Z
Electronic contribution:      1.64860       0.99079       0.11562
Nuclear contribution   :     -2.02854      -1.13250       0.42124
                        -----------------------------------------
Total Dipole Moment    :     -0.37994      -0.14172       0.53686
                        -----------------------------------------
Magnitude (a.u.)       :      0.67280
Magnitude (Debye)      :      1.71011

Rotational constants in cm-1:     4.156998     0.857528     0.814601
Rotational constants in MHz : 124623.663155 25708.035114 24421.125153

                             ****ORCA TERMINATED NORMALLY****
TOTAL RUN TIME: 0 days 0 hours 1 minutes 4 seconds 738 msec
