                         Program Version 4.1.2  - RELEASE  -
|  1> #Run DFT-D3 single point of the dimer
|  2> ! wB97X-D3 def2-TZVP TIGHTSCF CHELPG PMODEL PAL8
|  3>
|  4> %base "10-26_DFT_AB"
|  5>
|  6> %scf
|  7> MaxIter 1000
|  8> end
|  9>
| 10> * xyz 0 1
| 11>   C                      -0.107336            -6.761295            -6.715591
| 12>   O                      -0.840736            -7.925506            -6.762882
| 13>   H                      -0.625648            -8.537022            -6.098598
| 14>   H                      0.918834             -6.900276            -6.443235
| 15>   H                      -0.136207            -6.196261            -7.628469
| 16>   H                      -0.460480            -6.062073            -5.931819
| 17>   C                      -2.728455            -8.294067            -3.970005
| 18>   O                      -1.346350            -8.753726            -4.049427
| 19>   H                      -1.341560            -9.587864            -3.613665
| 20>   H                      -3.399248            -9.087153            -4.171375
| 21>   H                      -2.930991            -7.956123            -2.995674
| 22>   H                      -2.988727            -7.505298            -4.671363
| 23> *
| 24>
| 25> #Run DFT-D3 single point of the molecule with dimer basis set
| 26> $new_job
| 27> %base "10-26_DFT_A"
| 28> ! wB97X-D3 def2-TZVP TIGHTSCF CHELPG PMODEL
| 29>
| 30> %scf
| 31> MaxIter 1000
| 32> end
| 33>
| 34> * xyz 0 1
| 35>   C                      -0.107336            -6.761295            -6.715591
| 36>   O                      -0.840736            -7.925506            -6.762882
| 37>   H                      -0.625648            -8.537022            -6.098598
| 38>   H                      0.918834             -6.900276            -6.443235
| 39>   H                      -0.136207            -6.196261            -7.628469
| 40>   H                      -0.460480            -6.062073            -5.931819
| 41>   C                    : -2.728455            -8.294067            -3.970005
| 42>   O                    : -1.346350            -8.753726            -4.049427
| 43>   H                    : -1.341560            -9.587864            -3.613665
| 44>   H                    : -3.399248            -9.087153            -4.171375
| 45>   H                    : -2.930991            -7.956123            -2.995674
| 46>   H                    : -2.988727            -7.505298            -4.671363
| 47> *
| 48>
| 49> #Run DFT-D3 single point of the particle with dimer basis set
| 50> $new_job
| 51> %base "10-26_DFT_B"
| 52> ! wB97X-D3 def2-TZVP TIGHTSCF CHELPG PMODEL
| 53>
| 54> %scf
| 55> MaxIter 1000
| 56> end
| 57>
| 58> * xyz 0 1
| 59>   C                    : -0.107336            -6.761295            -6.715591
| 60>   O                    : -0.840736            -7.925506            -6.762882
| 61>   H                    : -0.625648            -8.537022            -6.098598
| 62>   H                    : 0.918834             -6.900276            -6.443235
| 63>   H                    : -0.136207            -6.196261            -7.628469
| 64>   H                    : -0.460480            -6.062073            -5.931819
| 65>   C                      -2.728455            -8.294067            -3.970005
| 66>   O                      -1.346350            -8.753726            -4.049427
| 67>   H                      -1.341560            -9.587864            -3.613665
| 68>   H                      -3.399248            -9.087153            -4.171375
| 69>   H                      -2.930991            -7.956123            -2.995674
| 70>   H                      -2.988727            -7.505298            -4.671363
| 71> *
| 72>
| 73>                          ****END OF INPUT****
 Total Charge           Charge          ....    0
 Multiplicity           Mult            ....    1
 Number of Electrons    NEL             ....   36
Dispersion correction           -0.001978308
FINAL SINGLE POINT ENERGY      -231.471886755154
Dispersion correction           -0.000241885
FINAL SINGLE POINT ENERGY      -115.733274316664

CARTESIAN COORDINATES (ANGSTROEM)
---------------------------------
  C     -0.107336   -6.761295   -6.715591
  O     -0.840736   -7.925506   -6.762882
  H     -0.625648   -8.537022   -6.098598
  H      0.918834   -6.900276   -6.443235
  H     -0.136207   -6.196261   -7.628469
  H     -0.460480   -6.062073   -5.931819
  C     -2.728455   -8.294067   -3.970005
  O     -1.346350   -8.753726   -4.049427
  H     -1.341560   -9.587864   -3.613665
  H     -3.399248   -9.087153   -4.171375
  H     -2.930991   -7.956123   -2.995674
  H     -2.988727   -7.505298   -4.671363

 Multiplicity           Mult            ....    1
 Number of Electrons    NEL             ....   18
 Basis Dimension        Dim             ....  172

ORBITAL ENERGIES
----------------

  NO   OCC          E(Eh)            E(eV)
   0   2.0000     -19.228757      -523.2411
   1   2.0000     -10.308203      -280.5005
   2   2.0000      -1.128575       -30.7101
   3   2.0000      -0.805785       -21.9265
   4   2.0000      -0.605688       -16.4816
   5   2.0000      -0.545012       -14.8305
   6   2.0000      -0.526700       -14.3322
   7   2.0000      -0.440249       -11.9798
   8   2.0000      -0.377045       -10.2599
   9   0.0000       0.097751         2.6599
  10   0.0000       0.126508         3.4425
  11   0.0000       0.151652         4.1267
  12   0.0000       0.191876         5.2212
  13   0.0000       0.197699         5.3797

MULLIKEN ATOMIC CHARGES
-----------------------
   0 C :    0.000586
   1 O :    0.001643
   2 H :   -0.010850
   3 H :   -0.000468
   4 H :   -0.000077
   5 H :   -0.000728
   6 C :   -0.176086
   7 O :   -0.469624
   8 H :    0.307301
   9 H :    0.112659
  10 H :    0.110914
  11 H :    0.124730
Sum of atomic charges:   -0.0000000

LOEWDIN ATOMIC CHARGES
----------------------
   0 C :   -0.003141
   1 O :   -0.005362
   2 H :   -0.026245
   3 H :   -0.000143
   4 H :   -0.000034
   5 H :   -0.000447
   6 C :   -0.338750
   7 O :   -0.069913
   8 H :    0.154204
   9 H :    0.091237
  10 H :    0.089258
  11 H :    0.109336

  Mayer bond orders larger than 0.1
B(  6-C ,  7-O ) :   0.9802 B(  6-C ,  9-H ) :   0.9814 B(  6-C , 10-H ) :   0.9764
B(  6-C , 11-H ) :   0.9749 B(  7-O ,  8-H ) :   0.9065

Dispersion correction           -0.000236137
FINAL SINGLE POINT ENERGY      -115.731865434828

DIPOLE MOMENT
-------------
                                X             Y             Z
Electronic contribution:      1.75959      -0.40930      -0.18114
Nuclear contribution   :     -2.37191       0.07089       0.49900
                        -----------------------------------------
Total Dipole Moment    :     -0.61232      -0.33841       0.31785
                        -----------------------------------------
Magnitude (a.u.)       :      0.76844
Magnitude (Debye)      :      1.95321

Rotational constants in cm-1:     4.540743     0.795589     0.767527
Rotational constants in MHz : 136128.062109 23851.144915 23009.885294

                             ****ORCA TERMINATED NORMALLY****
TOTAL RUN TIME: 0 days 0 hours 1 minutes 8 seconds 370 msec
