                         Program Version 4.1.2  - RELEASE  -
|  1> #Run DFT-D3 single point of the dimer
|  2> ! wB97X-D3 def2-TZVP TIGHTSCF CHELPG PMODEL PAL8
|  3>
|  4> %base "21-49_DFT_AB"
|  5>
|  6> %scf
|  7> MaxIter 1000
|  8> end
|  9>
| 10> * xyz 0 1
| 11>   C                      -4.571858            -8.509217            7.080362
| 12>   O                      -3.583468            -7.449682            7.394431
| 13>   H                      -3.572475            -6.902586            6.640899
| 14>   H                      -4.180799            -9.176255            6.298429
| 15>   H                      -4.673121            -9.129860            7.950470
| 16>   H                      -5.476760            -8.065264            6.898514
| 17>   C                      -8.011818            -10.170365           6.811941
| 18>   O                      -9.283217            -10.729772           6.767037
| 19>   H                      -9.970789            -10.188173           6.350972
| 20>   H                      -7.501096            -9.856722            5.909643
| 21>   H                      -8.006873            -9.270922            7.495222
| 22>   H                      -7.189989            -10.724177           7.235973
| 23> *
| 24>
| 25> #Run DFT-D3 single point of the molecule with dimer basis set
| 26> $new_job
| 27> %base "21-49_DFT_A"
| 28> ! wB97X-D3 def2-TZVP TIGHTSCF CHELPG PMODEL
| 29>
| 30> %scf
| 31> MaxIter 1000
| 32> end
| 33>
| 34> * xyz 0 1
| 35>   C                      -4.571858            -8.509217            7.080362
| 36>   O                      -3.583468            -7.449682            7.394431
| 37>   H                      -3.572475            -6.902586            6.640899
| 38>   H                      -4.180799            -9.176255            6.298429
| 39>   H                      -4.673121            -9.129860            7.950470
| 40>   H                      -5.476760            -8.065264            6.898514
| 41>   C                    : -8.011818            -10.170365           6.811941
| 42>   O                    : -9.283217            -10.729772           6.767037
| 43>   H                    : -9.970789            -10.188173           6.350972
| 44>   H                    : -7.501096            -9.856722            5.909643
| 45>   H                    : -8.006873            -9.270922            7.495222
| 46>   H                    : -7.189989            -10.724177           7.235973
| 47> *
| 48>
| 49> #Run DFT-D3 single point of the particle with dimer basis set
| 50> $new_job
| 51> %base "21-49_DFT_B"
| 52> ! wB97X-D3 def2-TZVP TIGHTSCF CHELPG PMODEL
| 53>
| 54> %scf
| 55> MaxIter 1000
| 56> end
| 57>
| 58> * xyz 0 1
| 59>   C                    : -4.571858            -8.509217            7.080362
| 60>   O                    : -3.583468            -7.449682            7.394431
| 61>   H                    : -3.572475            -6.902586            6.640899
| 62>   H                    : -4.180799            -9.176255            6.298429
| 63>   H                    : -4.673121            -9.129860            7.950470
| 64>   H                    : -5.476760            -8.065264            6.898514
| 65>   C                      -8.011818            -10.170365           6.811941
| 66>   O                      -9.283217            -10.729772           6.767037
| 67>   H                      -9.970789            -10.188173           6.350972
| 68>   H                      -7.501096            -9.856722            5.909643
| 69>   H                      -8.006873            -9.270922            7.495222
| 70>   H                      -7.189989            -10.724177           7.235973
| 71> *
| 72>
| 73>                          ****END OF INPUT****
 Total Charge           Charge          ....    0
 Multiplicity           Mult            ....    1
 Number of Electrons    NEL             ....   36
Dispersion correction           -0.001579714
FINAL SINGLE POINT ENERGY      -231.454789880460
Dispersion correction           -0.000238914
FINAL SINGLE POINT ENERGY      -115.729649313414

CARTESIAN COORDINATES (ANGSTROEM)
---------------------------------
  C     -4.571858   -8.509217    7.080362
  O     -3.583468   -7.449682    7.394431
  H     -3.572475   -6.902586    6.640899
  H     -4.180799   -9.176255    6.298429
  H     -4.673121   -9.129860    7.950470
  H     -5.476760   -8.065264    6.898514
  C     -8.011818  -10.170365    6.811941
  O     -9.283217  -10.729772    6.767037
  H     -9.970789  -10.188173    6.350972
  H     -7.501096   -9.856722    5.909643
  H     -8.006873   -9.270922    7.495222
  H     -7.189989  -10.724177    7.235973

 Multiplicity           Mult            ....    1
 Number of Electrons    NEL             ....   18
 Basis Dimension        Dim             ....  172

ORBITAL ENERGIES
----------------

  NO   OCC          E(Eh)            E(eV)
   0   2.0000     -19.235161      -523.4154
   1   2.0000     -10.313297      -280.6391
   2   2.0000      -1.139752       -31.0142
   3   2.0000      -0.803050       -21.8521
   4   2.0000      -0.624429       -16.9916
   5   2.0000      -0.537821       -14.6348
   6   2.0000      -0.530541       -14.4367
   7   2.0000      -0.417476       -11.3601
   8   2.0000      -0.373559       -10.1651
   9   0.0000       0.079531         2.1641
  10   0.0000       0.116815         3.1787
  11   0.0000       0.139355         3.7920
  12   0.0000       0.180219         4.9040
  13   0.0000       0.183245         4.9864

MULLIKEN ATOMIC CHARGES
-----------------------
   0 C :    0.001235
   1 O :   -0.000016
   2 H :   -0.000010
   3 H :   -0.000004
   4 H :   -0.000565
   5 H :   -0.002288
   6 C :   -0.159932
   7 O :   -0.482807
   8 H :    0.328025
   9 H :    0.097942
  10 H :    0.091800
  11 H :    0.126620
Sum of atomic charges:   -0.0000000

LOEWDIN ATOMIC CHARGES
----------------------
   0 C :   -0.002512
   1 O :   -0.000016
   2 H :   -0.000002
   3 H :   -0.000134
   4 H :   -0.000420
   5 H :   -0.001738
   6 C :   -0.417943
   7 O :   -0.057828
   8 H :    0.179477
   9 H :    0.092091
  10 H :    0.100484
  11 H :    0.108543

  Mayer bond orders larger than 0.1
B(  6-C ,  7-O ) :   1.0102 B(  6-C ,  9-H ) :   0.9687 B(  6-C , 10-H ) :   0.9873
B(  6-C , 11-H ) :   0.9678 B(  7-O ,  8-H ) :   0.8843

Dispersion correction           -0.000284164
FINAL SINGLE POINT ENERGY      -115.724459292004

DIPOLE MOMENT
-------------
                                X             Y             Z
Electronic contribution:     -1.80025      -1.01962      -0.13423
Nuclear contribution   :      1.86351       1.56984      -0.12599
                        -----------------------------------------
Total Dipole Moment    :      0.06326       0.55022      -0.26022
                        -----------------------------------------
Magnitude (a.u.)       :      0.61193
Magnitude (Debye)      :      1.55541

Rotational constants in cm-1:     4.752977     0.812839     0.796807
Rotational constants in MHz : 142490.657128 24368.286885 23887.662747

                             ****ORCA TERMINATED NORMALLY****
TOTAL RUN TIME: 0 days 0 hours 1 minutes 0 seconds 280 msec
