                         Program Version 4.1.2  - RELEASE  -
|  1> #Run DFT-D3 single point of the dimer
|  2> ! wB97X-D3 def2-TZVP TIGHTSCF CHELPG PMODEL PAL8
|  3>
|  4> %base "19-153_DFT_AB"
|  5>
|  6> %scf
|  7> MaxIter 1000
|  8> end
|  9>
| 10> * xyz 0 1
| 11>   C                      7.674039             0.035445             7.558897
| 12>   O                      8.497836             -1.111017            7.348845
| 13>   H                      8.080656             -1.808521            6.818184
| 14>   H                      7.815197             0.376542             8.597976
| 15>   H                      7.876174             0.780799             6.758844
| 16>   H                      6.562464             -0.208771            7.573850
| 17>   C                      8.688637             -2.375975            10.960818
| 18>   O                      7.454048             -2.255057            10.299819
| 19>   H                      7.658497             -2.290132            9.340659
| 20>   H                      8.886621             -3.384822            11.307108
| 21>   H                      9.483844             -2.092720            10.345854
| 22>   H                      8.576336             -1.714098            11.815789
| 23> *
| 24>
| 25> #Run DFT-D3 single point of the molecule with dimer basis set
| 26> $new_job
| 27> %base "19-153_DFT_A"
| 28> ! wB97X-D3 def2-TZVP TIGHTSCF CHELPG PMODEL
| 29>
| 30> %scf
| 31> MaxIter 1000
| 32> end
| 33>
| 34> * xyz 0 1
| 35>   C                      7.674039             0.035445             7.558897
| 36>   O                      8.497836             -1.111017            7.348845
| 37>   H                      8.080656             -1.808521            6.818184
| 38>   H                      7.815197             0.376542             8.597976
| 39>   H                      7.876174             0.780799             6.758844
| 40>   H                      6.562464             -0.208771            7.573850
| 41>   C                    : 8.688637             -2.375975            10.960818
| 42>   O                    : 7.454048             -2.255057            10.299819
| 43>   H                    : 7.658497             -2.290132            9.340659
| 44>   H                    : 8.886621             -3.384822            11.307108
| 45>   H                    : 9.483844             -2.092720            10.345854
| 46>   H                    : 8.576336             -1.714098            11.815789
| 47> *
| 48>
| 49> #Run DFT-D3 single point of the particle with dimer basis set
| 50> $new_job
| 51> %base "19-153_DFT_B"
| 52> ! wB97X-D3 def2-TZVP TIGHTSCF CHELPG PMODEL
| 53>
| 54> %scf
| 55> MaxIter 1000
| 56> end
| 57>
| 58> * xyz 0 1
| 59>   C                    : 7.674039             0.035445             7.558897
| 60>   O                    : 8.497836             -1.111017            7.348845
| 61>   H                    : 8.080656             -1.808521            6.818184
| 62>   H                    : 7.815197             0.376542             8.597976
| 63>   H                    : 7.876174             0.780799             6.758844
| 64>   H                    : 6.562464             -0.208771            7.573850
| 65>   C                      8.688637             -2.375975            10.960818
| 66>   O                      7.454048             -2.255057            10.299819
| 67>   H                      7.658497             -2.290132            9.340659
| 68>   H                      8.886621             -3.384822            11.307108
| 69>   H                      9.483844             -2.092720            10.345854
| 70>   H                      8.576336             -1.714098            11.815789
| 71> *
| 72>
| 73>                          ****END OF INPUT****
 Total Charge           Charge          ....    0
 Multiplicity           Mult            ....    1
 Number of Electrons    NEL             ....   36
Dispersion correction           -0.001994255
FINAL SINGLE POINT ENERGY      -231.471262461529
Dispersion correction           -0.000274419
FINAL SINGLE POINT ENERGY      -115.732177334665

CARTESIAN COORDINATES (ANGSTROEM)
---------------------------------
  C      7.674039    0.035445    7.558897
  O      8.497836   -1.111017    7.348845
  H      8.080656   -1.808521    6.818184
  H      7.815197    0.376542    8.597976
  H      7.876174    0.780799    6.758844
  H      6.562464   -0.208771    7.573850
  C      8.688637   -2.375975   10.960818
  O      7.454048   -2.255057   10.299819
  H      7.658497   -2.290132    9.340659
  H      8.886621   -3.384822   11.307108
  H      9.483844   -2.092720   10.345854
  H      8.576336   -1.714098   11.815789

 Multiplicity           Mult            ....    1
 Number of Electrons    NEL             ....   18
 Basis Dimension        Dim             ....  172

ORBITAL ENERGIES
----------------

  NO   OCC          E(Eh)            E(eV)
   0   2.0000     -19.230669      -523.2931
   1   2.0000     -10.304190      -280.3913
   2   2.0000      -1.136054       -30.9136
   3   2.0000      -0.796018       -21.6608
   4   2.0000      -0.617027       -16.7902
   5   2.0000      -0.543390       -14.7864
   6   2.0000      -0.524606       -14.2753
   7   2.0000      -0.440410       -11.9842
   8   2.0000      -0.371221       -10.1014
   9   0.0000       0.070847         1.9278
  10   0.0000       0.133723         3.6388
  11   0.0000       0.151207         4.1146
  12   0.0000       0.171916         4.6781
  13   0.0000       0.189020         5.1435

MULLIKEN ATOMIC CHARGES
-----------------------
   0 C :   -0.007308
   1 O :   -0.000292
   2 H :   -0.000361
   3 H :   -0.001085
   4 H :   -0.000478
   5 H :    0.000622
   6 C :   -0.155370
   7 O :   -0.466924
   8 H :    0.311972
   9 H :    0.098086
  10 H :    0.107870
  11 H :    0.113269
Sum of atomic charges:    0.0000000

LOEWDIN ATOMIC CHARGES
----------------------
   0 C :   -0.007109
   1 O :   -0.004206
   2 H :   -0.001261
   3 H :   -0.002681
   4 H :   -0.000148
   5 H :   -0.000585
   6 C :   -0.382274
   7 O :   -0.071664
   8 H :    0.182620
   9 H :    0.094025
  10 H :    0.085708
  11 H :    0.107576

  Mayer bond orders larger than 0.1
B(  6-C ,  7-O ) :   0.9966 B(  6-C ,  9-H ) :   0.9750 B(  6-C , 10-H ) :   0.9830
B(  6-C , 11-H ) :   0.9816 B(  7-O ,  8-H ) :   0.9056

Dispersion correction           -0.000224605
FINAL SINGLE POINT ENERGY      -115.733117574830

DIPOLE MOMENT
-------------
                                X             Y             Z
Electronic contribution:     -1.55457       0.14487      -0.73005
Nuclear contribution   :      2.18187      -0.20754       0.38626
                        -----------------------------------------
Total Dipole Moment    :      0.62730      -0.06267      -0.34379
                        -----------------------------------------
Magnitude (a.u.)       :      0.71807
Magnitude (Debye)      :      1.82519

Rotational constants in cm-1:     4.313371     0.854340     0.818653
Rotational constants in MHz : 129311.619567 25612.474056 24542.596402

                             ****ORCA TERMINATED NORMALLY****
TOTAL RUN TIME: 0 days 0 hours 1 minutes 37 seconds 605 msec
