                         Program Version 4.1.2  - RELEASE  -
|  1> #Run DFT-D3 single point of the dimer
|  2> ! wB97X-D3 def2-TZVP TIGHTSCF CHELPG PMODEL PAL8
|  3>
|  4> %base "16-88_DFT_AB"
|  5>
|  6> %scf
|  7> MaxIter 1000
|  8> end
|  9>
| 10> * xyz 0 1
| 11>   C                      7.892758             10.821007            -2.226867
| 12>   O                      8.272880             9.742820             -1.404930
| 13>   H                      8.541633             10.062633            -0.501364
| 14>   H                      7.192416             10.442952            -2.924750
| 15>   H                      7.429778             11.576646            -1.600123
| 16>   H                      8.748379             11.363983            -2.592521
| 17>   C                      5.477825             10.222591            2.055904
| 18>   O                      6.314687             9.784553             0.931115
| 19>   H                      6.687954             8.989488             1.259072
| 20>   H                      5.959780             10.902845            2.777499
| 21>   H                      4.533393             10.671920            1.844271
| 22>   H                      5.174428             9.336066             2.686822
| 23> *
| 24>
| 25> #Run DFT-D3 single point of the molecule with dimer basis set
| 26> $new_job
| 27> %base "16-88_DFT_A"
| 28> ! wB97X-D3 def2-TZVP TIGHTSCF CHELPG PMODEL
| 29>
| 30> %scf
| 31> MaxIter 1000
| 32> end
| 33>
| 34> * xyz 0 1
| 35>   C                      7.892758             10.821007            -2.226867
| 36>   O                      8.272880             9.742820             -1.404930
| 37>   H                      8.541633             10.062633            -0.501364
| 38>   H                      7.192416             10.442952            -2.924750
| 39>   H                      7.429778             11.576646            -1.600123
| 40>   H                      8.748379             11.363983            -2.592521
| 41>   C                    : 5.477825             10.222591            2.055904
| 42>   O                    : 6.314687             9.784553             0.931115
| 43>   H                    : 6.687954             8.989488             1.259072
| 44>   H                    : 5.959780             10.902845            2.777499
| 45>   H                    : 4.533393             10.671920            1.844271
| 46>   H                    : 5.174428             9.336066             2.686822
| 47> *
| 48>
| 49> #Run DFT-D3 single point of the particle with dimer basis set
| 50> $new_job
| 51> %base "16-88_DFT_B"
| 52> ! wB97X-D3 def2-TZVP TIGHTSCF CHELPG PMODEL
| 53>
| 54> %scf
| 55> MaxIter 1000
| 56> end
| 57>
| 58> * xyz 0 1
| 59>   C                    : 7.892758             10.821007            -2.226867
| 60>   O                    : 8.272880             9.742820             -1.404930
| 61>   H                    : 8.541633             10.062633            -0.501364
| 62>   H                    : 7.192416             10.442952            -2.924750
| 63>   H                    : 7.429778             11.576646            -1.600123
| 64>   H                    : 8.748379             11.363983            -2.592521
| 65>   C                      5.477825             10.222591            2.055904
| 66>   O                      6.314687             9.784553             0.931115
| 67>   H                      6.687954             8.989488             1.259072
| 68>   H                      5.959780             10.902845            2.777499
| 69>   H                      4.533393             10.671920            1.844271
| 70>   H                      5.174428             9.336066             2.686822
| 71> *
| 72>
| 73>                          ****END OF INPUT****
 Total Charge           Charge          ....    0
 Multiplicity           Mult            ....    1
 Number of Electrons    NEL             ....   36
Dispersion correction           -0.001521473
FINAL SINGLE POINT ENERGY      -231.459609114293
Dispersion correction           -0.000224679
FINAL SINGLE POINT ENERGY      -115.730882226139

CARTESIAN COORDINATES (ANGSTROEM)
---------------------------------
  C      7.892758   10.821007   -2.226867
  O      8.272880    9.742820   -1.404930
  H      8.541633   10.062633   -0.501364
  H      7.192416   10.442952   -2.924750
  H      7.429778   11.576646   -1.600123
  H      8.748379   11.363983   -2.592521
  C      5.477825   10.222591    2.055904
  O      6.314687    9.784553    0.931115
  H      6.687954    8.989488    1.259072
  H      5.959780   10.902845    2.777499
  H      4.533393   10.671920    1.844271
  H      5.174428    9.336066    2.686822

 Multiplicity           Mult            ....    1
 Number of Electrons    NEL             ....   18
 Basis Dimension        Dim             ....  172

ORBITAL ENERGIES
----------------

  NO   OCC          E(Eh)            E(eV)
   0   2.0000     -19.236493      -523.4516
   1   2.0000     -10.321854      -280.8719
   2   2.0000      -1.132236       -30.8097
   3   2.0000      -0.800960       -21.7952
   4   2.0000      -0.605275       -16.4704
   5   2.0000      -0.533693       -14.5225
   6   2.0000      -0.527344       -14.3498
   7   2.0000      -0.439813       -11.9679
   8   2.0000      -0.381623       -10.3845
   9   0.0000       0.098547         2.6816
  10   0.0000       0.121198         3.2980
  11   0.0000       0.145136         3.9494
  12   0.0000       0.187982         5.1153
  13   0.0000       0.197084         5.3629

MULLIKEN ATOMIC CHARGES
-----------------------
   0 C :    0.000658
   1 O :    0.002577
   2 H :   -0.007282
   3 H :    0.000014
   4 H :   -0.002839
   5 H :   -0.000302
   6 C :   -0.200524
   7 O :   -0.452347
   8 H :    0.314689
   9 H :    0.112794
  10 H :    0.127739
  11 H :    0.104824
Sum of atomic charges:   -0.0000000

LOEWDIN ATOMIC CHARGES
----------------------
   0 C :   -0.003498
   1 O :   -0.003564
   2 H :   -0.008268
   3 H :   -0.000110
   4 H :   -0.001437
   5 H :   -0.000043
   6 C :   -0.357143
   7 O :   -0.084750
   8 H :    0.156261
   9 H :    0.098721
  10 H :    0.098630
  11 H :    0.105201

  Mayer bond orders larger than 0.1
B(  6-C ,  7-O ) :   1.0082 B(  6-C ,  9-H ) :   0.9693 B(  6-C , 10-H ) :   0.9727
B(  6-C , 11-H ) :   0.9842 B(  7-O ,  8-H ) :   0.9041

Dispersion correction           -0.000278453
FINAL SINGLE POINT ENERGY      -115.727430014064

DIPOLE MOMENT
-------------
                                X             Y             Z
Electronic contribution:      1.05663      -0.34360      -1.69931
Nuclear contribution   :     -1.19776       0.00605       2.38128
                        -----------------------------------------
Total Dipole Moment    :     -0.14113      -0.33755       0.68196
                        -----------------------------------------
Magnitude (a.u.)       :      0.77391
Magnitude (Debye)      :      1.96712

Rotational constants in cm-1:     4.450932     0.770724     0.746076
Rotational constants in MHz : 133435.594557 23105.734416 22366.782964

                             ****ORCA TERMINATED NORMALLY****
TOTAL RUN TIME: 0 days 0 hours 0 minutes 54 seconds 708 msec
