                         Program Version 4.1.2  - RELEASE  -
|  1> #Run DFT-D3 single point of the dimer
|  2> ! wB97X-D3 def2-TZVP TIGHTSCF CHELPG PMODEL PAL8
|  3>
|  4> %base "2-68_DFT_AB"
|  5>
|  6> %scf
|  7> MaxIter 1000
|  8> end
|  9>
| 10> * xyz 0 1
| 11>   C                      2.216168             -10.583670           6.792271
| 12>   O                      1.676542             -10.073466           5.612727
| 13>   H                      2.289929             -10.296612           4.873086
| 14>   H                      1.920652             -11.635590           6.979439
| 15>   H                      3.230282             -10.410300           6.926087
| 16>   H                      1.813010             -10.092693           7.607417
| 17>   C                      7.257061             -9.033298            8.390871
| 18>   O                      6.130626             -9.527345            7.681143
| 19>   H                      6.213954             -10.435623           7.478732
| 20>   H                      7.359943             -9.506412            9.361512
| 21>   H                      8.180635             -9.096375            7.782912
| 22>   H                      7.031138             -7.955994            8.590674
| 23> *
| 24>
| 25> #Run DFT-D3 single point of the molecule with dimer basis set
| 26> $new_job
| 27> %base "2-68_DFT_A"
| 28> ! wB97X-D3 def2-TZVP TIGHTSCF CHELPG PMODEL
| 29>
| 30> %scf
| 31> MaxIter 1000
| 32> end
| 33>
| 34> * xyz 0 1
| 35>   C                      2.216168             -10.583670           6.792271
| 36>   O                      1.676542             -10.073466           5.612727
| 37>   H                      2.289929             -10.296612           4.873086
| 38>   H                      1.920652             -11.635590           6.979439
| 39>   H                      3.230282             -10.410300           6.926087
| 40>   H                      1.813010             -10.092693           7.607417
| 41>   C                    : 7.257061             -9.033298            8.390871
| 42>   O                    : 6.130626             -9.527345            7.681143
| 43>   H                    : 6.213954             -10.435623           7.478732
| 44>   H                    : 7.359943             -9.506412            9.361512
| 45>   H                    : 8.180635             -9.096375            7.782912
| 46>   H                    : 7.031138             -7.955994            8.590674
| 47> *
| 48>
| 49> #Run DFT-D3 single point of the particle with dimer basis set
| 50> $new_job
| 51> %base "2-68_DFT_B"
| 52> ! wB97X-D3 def2-TZVP TIGHTSCF CHELPG PMODEL
| 53>
| 54> %scf
| 55> MaxIter 1000
| 56> end
| 57>
| 58> * xyz 0 1
| 59>   C                    : 2.216168             -10.583670           6.792271
| 60>   O                    : 1.676542             -10.073466           5.612727
| 61>   H                    : 2.289929             -10.296612           4.873086
| 62>   H                    : 1.920652             -11.635590           6.979439
| 63>   H                    : 3.230282             -10.410300           6.926087
| 64>   H                    : 1.813010             -10.092693           7.607417
| 65>   C                      7.257061             -9.033298            8.390871
| 66>   O                      6.130626             -9.527345            7.681143
| 67>   H                      6.213954             -10.435623           7.478732
| 68>   H                      7.359943             -9.506412            9.361512
| 69>   H                      8.180635             -9.096375            7.782912
| 70>   H                      7.031138             -7.955994            8.590674
| 71> *
| 72>
| 73>                          ****END OF INPUT****
 Total Charge           Charge          ....    0
 Multiplicity           Mult            ....    1
 Number of Electrons    NEL             ....   36
Dispersion correction           -0.000977287
FINAL SINGLE POINT ENERGY      -231.465626737186
Dispersion correction           -0.000238871
FINAL SINGLE POINT ENERGY      -115.728852469754

CARTESIAN COORDINATES (ANGSTROEM)
---------------------------------
  C      2.216168  -10.583670    6.792271
  O      1.676542  -10.073466    5.612727
  H      2.289929  -10.296612    4.873086
  H      1.920652  -11.635590    6.979439
  H      3.230282  -10.410300    6.926087
  H      1.813010  -10.092693    7.607417
  C      7.257061   -9.033298    8.390871
  O      6.130626   -9.527345    7.681143
  H      6.213954  -10.435623    7.478732
  H      7.359943   -9.506412    9.361512
  H      8.180635   -9.096375    7.782912
  H      7.031138   -7.955994    8.590674

 Multiplicity           Mult            ....    1
 Number of Electrons    NEL             ....   18
 Basis Dimension        Dim             ....  172

ORBITAL ENERGIES
----------------

  NO   OCC          E(Eh)            E(eV)
   0   2.0000     -19.225322      -523.1476
   1   2.0000     -10.316939      -280.7382
   2   2.0000      -1.136319       -30.9208
   3   2.0000      -0.797338       -21.6967
   4   2.0000      -0.610883       -16.6230
   5   2.0000      -0.546155       -14.8616
   6   2.0000      -0.521794       -14.1987
   7   2.0000      -0.427547       -11.6341
   8   2.0000      -0.375919       -10.2293
   9   0.0000       0.093697         2.5496
  10   0.0000       0.122406         3.3308
  11   0.0000       0.154487         4.2038
  12   0.0000       0.172673         4.6987
  13   0.0000       0.196912         5.3582

MULLIKEN ATOMIC CHARGES
-----------------------
   0 C :    0.002151
   1 O :   -0.000024
   2 H :   -0.000022
   3 H :   -0.000053
   4 H :   -0.005908
   5 H :   -0.000155
   6 C :   -0.154205
   7 O :   -0.478563
   8 H :    0.311061
   9 H :    0.104412
  10 H :    0.102568
  11 H :    0.118738
Sum of atomic charges:    0.0000000

LOEWDIN ATOMIC CHARGES
----------------------
   0 C :   -0.000955
   1 O :   -0.000014
   2 H :   -0.000005
   3 H :   -0.000004
   4 H :   -0.002833
   5 H :   -0.000036
   6 C :   -0.378725
   7 O :   -0.070984
   8 H :    0.147995
   9 H :    0.092382
  10 H :    0.097361
  11 H :    0.115818

  Mayer bond orders larger than 0.1
B(  6-C ,  7-O ) :   0.9911 B(  6-C ,  9-H ) :   0.9731 B(  6-C , 10-H ) :   0.9724
B(  6-C , 11-H ) :   0.9759 B(  7-O ,  8-H ) :   0.9015

Dispersion correction           -0.000250634
FINAL SINGLE POINT ENERGY      -115.735887505914

DIPOLE MOMENT
-------------
                                X             Y             Z
Electronic contribution:     -1.38915      -0.59922      -0.86863
Nuclear contribution   :      1.90352       0.21618       1.03802
                        -----------------------------------------
Total Dipole Moment    :      0.51437      -0.38304       0.16939
                        -----------------------------------------
Magnitude (a.u.)       :      0.66332
Magnitude (Debye)      :      1.68601

Rotational constants in cm-1:     4.270683     0.822212     0.799053
Rotational constants in MHz : 128031.865852 24649.299766 23954.999201

                             ****ORCA TERMINATED NORMALLY****
TOTAL RUN TIME: 0 days 0 hours 6 minutes 2 seconds 792 msec
