                         Program Version 4.1.2  - RELEASE  -
|  1> #Run DFT-D3 single point of the dimer
|  2> ! wB97X-D3 def2-TZVP TIGHTSCF CHELPG PMODEL PAL8
|  3>
|  4> %base "1-157_DFT_AB"
|  5>
|  6> %scf
|  7> MaxIter 1000
|  8> end
|  9>
| 10> * xyz 0 1
| 11>   C                      10.616693            -9.024926            10.683201
| 12>   O                      11.451603            -9.000873            9.598607
| 13>   H                      11.082871            -8.509996            8.856676
| 14>   H                      10.334665            -8.011721            10.998511
| 15>   H                      9.613762             -9.467536            10.460529
| 16>   H                      11.098516            -9.497788            11.598811
| 17>   C                      10.352026            -5.935327            9.632944
| 18>   O                      10.792105            -5.202303            8.473814
| 19>   H                      10.497764            -4.299344            8.530602
| 20>   H                      9.256438             -5.809035            9.783985
| 21>   H                      10.656892            -6.945172            9.567578
| 22>   H                      10.798841            -5.568398            10.508787
| 23> *
| 24>
| 25> #Run DFT-D3 single point of the molecule with dimer basis set
| 26> $new_job
| 27> %base "1-157_DFT_A"
| 28> ! wB97X-D3 def2-TZVP TIGHTSCF CHELPG PMODEL
| 29>
| 30> %scf
| 31> MaxIter 1000
| 32> end
| 33>
| 34> * xyz 0 1
| 35>   C                      10.616693            -9.024926            10.683201
| 36>   O                      11.451603            -9.000873            9.598607
| 37>   H                      11.082871            -8.509996            8.856676
| 38>   H                      10.334665            -8.011721            10.998511
| 39>   H                      9.613762             -9.467536            10.460529
| 40>   H                      11.098516            -9.497788            11.598811
| 41>   C                    : 10.352026            -5.935327            9.632944
| 42>   O                    : 10.792105            -5.202303            8.473814
| 43>   H                    : 10.497764            -4.299344            8.530602
| 44>   H                    : 9.256438             -5.809035            9.783985
| 45>   H                    : 10.656892            -6.945172            9.567578
| 46>   H                    : 10.798841            -5.568398            10.508787
| 47> *
| 48>
| 49> #Run DFT-D3 single point of the particle with dimer basis set
| 50> $new_job
| 51> %base "1-157_DFT_B"
| 52> ! wB97X-D3 def2-TZVP TIGHTSCF CHELPG PMODEL
| 53>
| 54> %scf
| 55> MaxIter 1000
| 56> end
| 57>
| 58> * xyz 0 1
| 59>   C                    : 10.616693            -9.024926            10.683201
| 60>   O                    : 11.451603            -9.000873            9.598607
| 61>   H                    : 11.082871            -8.509996            8.856676
| 62>   H                    : 10.334665            -8.011721            10.998511
| 63>   H                    : 9.613762             -9.467536            10.460529
| 64>   H                    : 11.098516            -9.497788            11.598811
| 65>   C                      10.352026            -5.935327            9.632944
| 66>   O                      10.792105            -5.202303            8.473814
| 67>   H                      10.497764            -4.299344            8.530602
| 68>   H                      9.256438             -5.809035            9.783985
| 69>   H                      10.656892            -6.945172            9.567578
| 70>   H                      10.798841            -5.568398            10.508787
| 71> *
| 72>
| 73>                          ****END OF INPUT****
 Total Charge           Charge          ....    0
 Multiplicity           Mult            ....    1
 Number of Electrons    NEL             ....   36
Dispersion correction           -0.001913391
FINAL SINGLE POINT ENERGY      -231.461215343491
Dispersion correction           -0.000241654
FINAL SINGLE POINT ENERGY      -115.732590650627

CARTESIAN COORDINATES (ANGSTROEM)
---------------------------------
  C     10.616693   -9.024926   10.683201
  O     11.451603   -9.000873    9.598607
  H     11.082871   -8.509996    8.856676
  H     10.334665   -8.011721   10.998511
  H      9.613762   -9.467536   10.460529
  H     11.098516   -9.497788   11.598811
  C     10.352026   -5.935327    9.632944
  O     10.792105   -5.202303    8.473814
  H     10.497764   -4.299344    8.530602
  H      9.256438   -5.809035    9.783985
  H     10.656892   -6.945172    9.567578
  H     10.798841   -5.568398   10.508787

 Multiplicity           Mult            ....    1
 Number of Electrons    NEL             ....   18
 Basis Dimension        Dim             ....  172

ORBITAL ENERGIES
----------------

  NO   OCC          E(Eh)            E(eV)
   0   2.0000     -19.226860      -523.1894
   1   2.0000     -10.308873      -280.5187
   2   2.0000      -1.127551       -30.6822
   3   2.0000      -0.803808       -21.8727
   4   2.0000      -0.608649       -16.5622
   5   2.0000      -0.539663       -14.6850
   6   2.0000      -0.529093       -14.3974
   7   2.0000      -0.436683       -11.8828
   8   2.0000      -0.372682       -10.1412
   9   0.0000       0.090733         2.4690
  10   0.0000       0.117236         3.1902
  11   0.0000       0.157392         4.2829
  12   0.0000       0.171484         4.6663
  13   0.0000       0.190519         5.1843

MULLIKEN ATOMIC CHARGES
-----------------------
   0 C :   -0.007381
   1 O :    0.001737
   2 H :    0.003513
   3 H :    0.004916
   4 H :    0.000317
   5 H :    0.000124
   6 C :   -0.157541
   7 O :   -0.484122
   8 H :    0.313194
   9 H :    0.102635
  10 H :    0.117619
  11 H :    0.104990
Sum of atomic charges:   -0.0000000

LOEWDIN ATOMIC CHARGES
----------------------
   0 C :   -0.019882
   1 O :   -0.007860
   2 H :   -0.011330
   3 H :   -0.012509
   4 H :   -0.000421
   5 H :   -0.000164
   6 C :   -0.334038
   7 O :   -0.090010
   8 H :    0.159689
   9 H :    0.102761
  10 H :    0.124909
  11 H :    0.088855

  Mayer bond orders larger than 0.1
B(  6-C ,  7-O ) :   1.0229 B(  6-C ,  9-H ) :   0.9822 B(  6-C , 10-H ) :   0.9772
B(  6-C , 11-H ) :   0.9768 B(  7-O ,  8-H ) :   0.9012

Dispersion correction           -0.000241717
FINAL SINGLE POINT ENERGY      -115.733239832583

DIPOLE MOMENT
-------------
                                X             Y             Z
Electronic contribution:      0.63337       0.72180      -1.50584
Nuclear contribution   :     -0.98378      -0.45061       2.04794
                        -----------------------------------------
Total Dipole Moment    :     -0.35041       0.27119       0.54210
                        -----------------------------------------
Magnitude (a.u.)       :      0.70014
Magnitude (Debye)      :      1.77962

Rotational constants in cm-1:     4.455624     0.811680     0.778471
Rotational constants in MHz : 133576.259490 24333.553100 23337.987293

                             ****ORCA TERMINATED NORMALLY****
TOTAL RUN TIME: 0 days 0 hours 6 minutes 15 seconds 765 msec
