                         Program Version 4.1.2  - RELEASE  -
|  1> #Run DFT-D3 single point of the dimer
|  2> ! wB97X-D3 def2-TZVP TIGHTSCF CHELPG PMODEL PAL8
|  3>
|  4> %base "2-173_DFT_AB"
|  5>
|  6> %scf
|  7> MaxIter 1000
|  8> end
|  9>
| 10> * xyz 0 1
| 11>   C                      -5.024703            -0.475523            -9.681912
| 12>   O                      -5.610899            -0.556094            -8.404248
| 13>   H                      -6.295084            0.138355             -8.425728
| 14>   H                      -5.727918            -0.348094            -10.497416
| 15>   H                      -4.225119            0.281107             -9.772922
| 16>   H                      -4.465926            -1.431594            -9.972453
| 17>   C                      -9.224930            4.839773             -7.286287
| 18>   O                      -8.231140            4.166823             -6.498063
| 19>   H                      -8.353721            3.247106             -6.539057
| 20>   H                      -9.437909            4.274137             -8.195212
| 21>   H                      -10.117636           4.978880             -6.708360
| 22>   H                      -9.045437            5.853248             -7.636476
| 23> *
| 24>
| 25> #Run DFT-D3 single point of the molecule with dimer basis set
| 26> $new_job
| 27> %base "2-173_DFT_A"
| 28> ! wB97X-D3 def2-TZVP TIGHTSCF CHELPG PMODEL
| 29>
| 30> %scf
| 31> MaxIter 1000
| 32> end
| 33>
| 34> * xyz 0 1
| 35>   C                      -5.024703            -0.475523            -9.681912
| 36>   O                      -5.610899            -0.556094            -8.404248
| 37>   H                      -6.295084            0.138355             -8.425728
| 38>   H                      -5.727918            -0.348094            -10.497416
| 39>   H                      -4.225119            0.281107             -9.772922
| 40>   H                      -4.465926            -1.431594            -9.972453
| 41>   C                    : -9.224930            4.839773             -7.286287
| 42>   O                    : -8.231140            4.166823             -6.498063
| 43>   H                    : -8.353721            3.247106             -6.539057
| 44>   H                    : -9.437909            4.274137             -8.195212
| 45>   H                    : -10.117636           4.978880             -6.708360
| 46>   H                    : -9.045437            5.853248             -7.636476
| 47> *
| 48>
| 49> #Run DFT-D3 single point of the particle with dimer basis set
| 50> $new_job
| 51> %base "2-173_DFT_B"
| 52> ! wB97X-D3 def2-TZVP TIGHTSCF CHELPG PMODEL
| 53>
| 54> %scf
| 55> MaxIter 1000
| 56> end
| 57>
| 58> * xyz 0 1
| 59>   C                    : -5.024703            -0.475523            -9.681912
| 60>   O                    : -5.610899            -0.556094            -8.404248
| 61>   H                    : -6.295084            0.138355             -8.425728
| 62>   H                    : -5.727918            -0.348094            -10.497416
| 63>   H                    : -4.225119            0.281107             -9.772922
| 64>   H                    : -4.465926            -1.431594            -9.972453
| 65>   C                      -9.224930            4.839773             -7.286287
| 66>   O                      -8.231140            4.166823             -6.498063
| 67>   H                      -8.353721            3.247106             -6.539057
| 68>   H                      -9.437909            4.274137             -8.195212
| 69>   H                      -10.117636           4.978880             -6.708360
| 70>   H                      -9.045437            5.853248             -7.636476
| 71> *
| 72>
| 73>                          ****END OF INPUT****
 Total Charge           Charge          ....    0
 Multiplicity           Mult            ....    1
 Number of Electrons    NEL             ....   36
Dispersion correction           -0.000605108
FINAL SINGLE POINT ENERGY      -231.461269644253
Dispersion correction           -0.000255476
FINAL SINGLE POINT ENERGY      -115.732329033244

CARTESIAN COORDINATES (ANGSTROEM)
---------------------------------
  C     -5.024703   -0.475523   -9.681912
  O     -5.610899   -0.556094   -8.404248
  H     -6.295084    0.138355   -8.425728
  H     -5.727918   -0.348094  -10.497416
  H     -4.225119    0.281107   -9.772922
  H     -4.465926   -1.431594   -9.972453
  C     -9.224930    4.839773   -7.286287
  O     -8.231140    4.166823   -6.498063
  H     -8.353721    3.247106   -6.539057
  H     -9.437909    4.274137   -8.195212
  H    -10.117636    4.978880   -6.708360
  H     -9.045437    5.853248   -7.636476

 Multiplicity           Mult            ....    1
 Number of Electrons    NEL             ....   18
 Basis Dimension        Dim             ....  172

ORBITAL ENERGIES
----------------

  NO   OCC          E(Eh)            E(eV)
   0   2.0000     -19.226663      -523.1841
   1   2.0000     -10.312818      -280.6261
   2   2.0000      -1.134265       -30.8649
   3   2.0000      -0.804612       -21.8946
   4   2.0000      -0.611136       -16.6299
   5   2.0000      -0.543420       -14.7872
   6   2.0000      -0.530745       -14.4423
   7   2.0000      -0.427309       -11.6277
   8   2.0000      -0.375353       -10.2139
   9   0.0000       0.083841         2.2814
  10   0.0000       0.115157         3.1336
  11   0.0000       0.148675         4.0456
  12   0.0000       0.168019         4.5720
  13   0.0000       0.197261         5.3678

MULLIKEN ATOMIC CHARGES
-----------------------
   0 C :    0.000017
   1 O :    0.000009
   2 H :   -0.000112
   3 H :   -0.000001
   4 H :   -0.000001
   5 H :   -0.000000
   6 C :   -0.164773
   7 O :   -0.478508
   8 H :    0.313026
   9 H :    0.104905
  10 H :    0.107738
  11 H :    0.117699
Sum of atomic charges:   -0.0000000

LOEWDIN ATOMIC CHARGES
----------------------
   0 C :   -0.000002
   1 O :   -0.000001
   2 H :   -0.000064
   3 H :   -0.000000
   4 H :   -0.000000
   5 H :   -0.000000
   6 C :   -0.365499
   7 O :   -0.078056
   8 H :    0.147292
   9 H :    0.097378
  10 H :    0.092655
  11 H :    0.106298

  Mayer bond orders larger than 0.1
B(  6-C ,  7-O ) :   0.9956 B(  6-C ,  9-H ) :   0.9838 B(  6-C , 10-H ) :   0.9799
B(  6-C , 11-H ) :   0.9718 B(  7-O ,  8-H ) :   0.9040

Dispersion correction           -0.000256733
FINAL SINGLE POINT ENERGY      -115.729241768011

DIPOLE MOMENT
-------------
                                X             Y             Z
Electronic contribution:      1.39567      -0.73719       1.04632
Nuclear contribution   :     -1.89985       0.43163      -1.41699
                        -----------------------------------------
Total Dipole Moment    :     -0.50418      -0.30556      -0.37067
                        -----------------------------------------
Magnitude (a.u.)       :      0.69639
Magnitude (Debye)      :      1.77009

Rotational constants in cm-1:     4.616175     0.799289     0.775407
Rotational constants in MHz : 138389.457278 23962.086992 23246.110390

                             ****ORCA TERMINATED NORMALLY****
TOTAL RUN TIME: 0 days 0 hours 6 minutes 25 seconds 680 msec
