                         Program Version 4.1.2  - RELEASE  -
|  1> #Run DFT-D3 single point of the dimer
|  2> ! wB97X-D3 def2-TZVP TIGHTSCF CHELPG PMODEL PAL8
|  3>
|  4> %base "14-189_DFT_AB"
|  5>
|  6> %scf
|  7> MaxIter 1000
|  8> end
|  9>
| 10> * xyz 0 1
| 11>   C                      1.991377             -8.790628            -5.001181
| 12>   O                      1.083438             -9.922957            -4.983898
| 13>   H                      1.557462             -10.720434           -4.807969
| 14>   H                      1.465229             -7.924488            -5.489104
| 15>   H                      2.321714             -8.437069            -4.029758
| 16>   H                      2.848123             -8.985034            -5.668499
| 17>   C                      -1.615258            -7.812127            -3.187670
| 18>   O                      -1.642978            -8.634937            -4.312714
| 19>   H                      -0.824361            -9.154320            -4.280424
| 20>   H                      -1.920320            -8.314791            -2.223420
| 21>   H                      -0.692830            -7.435265            -2.963186
| 22>   H                      -2.304978            -6.980117            -3.242377
| 23> *
| 24>
| 25> #Run DFT-D3 single point of the molecule with dimer basis set
| 26> $new_job
| 27> %base "14-189_DFT_A"
| 28> ! wB97X-D3 def2-TZVP TIGHTSCF CHELPG PMODEL
| 29>
| 30> %scf
| 31> MaxIter 1000
| 32> end
| 33>
| 34> * xyz 0 1
| 35>   C                      1.991377             -8.790628            -5.001181
| 36>   O                      1.083438             -9.922957            -4.983898
| 37>   H                      1.557462             -10.720434           -4.807969
| 38>   H                      1.465229             -7.924488            -5.489104
| 39>   H                      2.321714             -8.437069            -4.029758
| 40>   H                      2.848123             -8.985034            -5.668499
| 41>   C                    : -1.615258            -7.812127            -3.187670
| 42>   O                    : -1.642978            -8.634937            -4.312714
| 43>   H                    : -0.824361            -9.154320            -4.280424
| 44>   H                    : -1.920320            -8.314791            -2.223420
| 45>   H                    : -0.692830            -7.435265            -2.963186
| 46>   H                    : -2.304978            -6.980117            -3.242377
| 47> *
| 48>
| 49> #Run DFT-D3 single point of the particle with dimer basis set
| 50> $new_job
| 51> %base "14-189_DFT_B"
| 52> ! wB97X-D3 def2-TZVP TIGHTSCF CHELPG PMODEL
| 53>
| 54> %scf
| 55> MaxIter 1000
| 56> end
| 57>
| 58> * xyz 0 1
| 59>   C                    : 1.991377             -8.790628            -5.001181
| 60>   O                    : 1.083438             -9.922957            -4.983898
| 61>   H                    : 1.557462             -10.720434           -4.807969
| 62>   H                    : 1.465229             -7.924488            -5.489104
| 63>   H                    : 2.321714             -8.437069            -4.029758
| 64>   H                    : 2.848123             -8.985034            -5.668499
| 65>   C                      -1.615258            -7.812127            -3.187670
| 66>   O                      -1.642978            -8.634937            -4.312714
| 67>   H                      -0.824361            -9.154320            -4.280424
| 68>   H                      -1.920320            -8.314791            -2.223420
| 69>   H                      -0.692830            -7.435265            -2.963186
| 70>   H                      -2.304978            -6.980117            -3.242377
| 71> *
| 72>
| 73>                          ****END OF INPUT****
 Total Charge           Charge          ....    0
 Multiplicity           Mult            ....    1
 Number of Electrons    NEL             ....   36
Dispersion correction           -0.001866633
FINAL SINGLE POINT ENERGY      -231.472415908070
Dispersion correction           -0.000275136
FINAL SINGLE POINT ENERGY      -115.734434706333

CARTESIAN COORDINATES (ANGSTROEM)
---------------------------------
  C      1.991377   -8.790628   -5.001181
  O      1.083438   -9.922957   -4.983898
  H      1.557462  -10.720434   -4.807969
  H      1.465229   -7.924488   -5.489104
  H      2.321714   -8.437069   -4.029758
  H      2.848123   -8.985034   -5.668499
  C     -1.615258   -7.812127   -3.187670
  O     -1.642978   -8.634937   -4.312714
  H     -0.824361   -9.154320   -4.280424
  H     -1.920320   -8.314791   -2.223420
  H     -0.692830   -7.435265   -2.963186
  H     -2.304978   -6.980117   -3.242377

 Multiplicity           Mult            ....    1
 Number of Electrons    NEL             ....   18
 Basis Dimension        Dim             ....  172

ORBITAL ENERGIES
----------------

  NO   OCC          E(Eh)            E(eV)
   0   2.0000     -19.236589      -523.4542
   1   2.0000     -10.305879      -280.4372
   2   2.0000      -1.144329       -31.1388
   3   2.0000      -0.800570       -21.7846
   4   2.0000      -0.622181       -16.9304
   5   2.0000      -0.538783       -14.6610
   6   2.0000      -0.531153       -14.4534
   7   2.0000      -0.441357       -12.0099
   8   2.0000      -0.372337       -10.1318
   9   0.0000       0.068785         1.8717
  10   0.0000       0.137874         3.7517
  11   0.0000       0.141662         3.8548
  12   0.0000       0.165548         4.5048
  13   0.0000       0.187387         5.0991

MULLIKEN ATOMIC CHARGES
-----------------------
   0 C :   -0.004875
   1 O :    0.000250
   2 H :    0.000048
   3 H :   -0.001031
   4 H :    0.000391
   5 H :   -0.000251
   6 C :   -0.165938
   7 O :   -0.456107
   8 H :    0.314102
   9 H :    0.088672
  10 H :    0.108578
  11 H :    0.116162
Sum of atomic charges:   -0.0000000

LOEWDIN ATOMIC CHARGES
----------------------
   0 C :   -0.004731
   1 O :   -0.010281
   2 H :   -0.000561
   3 H :   -0.001314
   4 H :   -0.000211
   5 H :   -0.000093
   6 C :   -0.399662
   7 O :   -0.050366
   8 H :    0.184345
   9 H :    0.099057
  10 H :    0.077837
  11 H :    0.105980

  Mayer bond orders larger than 0.1
B(  6-C ,  7-O ) :   1.0087 B(  6-C ,  9-H ) :   0.9814 B(  6-C , 10-H ) :   0.9760
B(  6-C , 11-H ) :   0.9755 B(  7-O ,  8-H ) :   0.9038

Dispersion correction           -0.000238697
FINAL SINGLE POINT ENERGY      -115.730378938055

DIPOLE MOMENT
-------------
                                X             Y             Z
Electronic contribution:     -0.09703      -0.99680      -1.69506
Nuclear contribution   :      0.64069       1.01438       2.13358
                        -----------------------------------------
Total Dipole Moment    :      0.54366       0.01758       0.43852
                        -----------------------------------------
Magnitude (a.u.)       :      0.69870
Magnitude (Debye)      :      1.77594

Rotational constants in cm-1:     4.536171     0.843840     0.810449
Rotational constants in MHz : 135990.972898 25297.675440 24296.653280

                             ****ORCA TERMINATED NORMALLY****
TOTAL RUN TIME: 0 days 0 hours 1 minutes 7 seconds 917 msec
