                         Program Version 4.1.2  - RELEASE  -
|  1> #Run DFT-D3 single point of the dimer
|  2> ! wB97X-D3 def2-TZVP TIGHTSCF CHELPG PMODEL PAL8
|  3>
|  4> %base "20-187_DFT_AB"
|  5>
|  6> %scf
|  7> MaxIter 1000
|  8> end
|  9>
| 10> * xyz 0 1
| 11>   C                      -1.450184            -1.622072            3.478730
| 12>   O                      -0.620804            -2.459296            2.638625
| 13>   H                      -1.236569            -2.930839            2.061761
| 14>   H                      -0.843443            -0.982371            4.031398
| 15>   H                      -2.157079            -1.009784            2.875178
| 16>   H                      -2.096073            -2.239981            4.112396
| 17>   C                      1.720387             0.254401             2.862474
| 18>   O                      1.437891             -0.553017            1.745106
| 19>   H                      1.135046             -1.350429            2.138803
| 20>   H                      0.852401             0.675602             3.353505
| 21>   H                      2.415632             -0.354741            3.568618
| 22>   H                      2.207707             1.073727             2.452199
| 23> *
| 24>
| 25> #Run DFT-D3 single point of the molecule with dimer basis set
| 26> $new_job
| 27> %base "20-187_DFT_A"
| 28> ! wB97X-D3 def2-TZVP TIGHTSCF CHELPG PMODEL
| 29>
| 30> %scf
| 31> MaxIter 1000
| 32> end
| 33>
| 34> * xyz 0 1
| 35>   C                      -1.450184            -1.622072            3.478730
| 36>   O                      -0.620804            -2.459296            2.638625
| 37>   H                      -1.236569            -2.930839            2.061761
| 38>   H                      -0.843443            -0.982371            4.031398
| 39>   H                      -2.157079            -1.009784            2.875178
| 40>   H                      -2.096073            -2.239981            4.112396
| 41>   C                    : 1.720387             0.254401             2.862474
| 42>   O                    : 1.437891             -0.553017            1.745106
| 43>   H                    : 1.135046             -1.350429            2.138803
| 44>   H                    : 0.852401             0.675602             3.353505
| 45>   H                    : 2.415632             -0.354741            3.568618
| 46>   H                    : 2.207707             1.073727             2.452199
| 47> *
| 48>
| 49> #Run DFT-D3 single point of the particle with dimer basis set
| 50> $new_job
| 51> %base "20-187_DFT_B"
| 52> ! wB97X-D3 def2-TZVP TIGHTSCF CHELPG PMODEL
| 53>
| 54> %scf
| 55> MaxIter 1000
| 56> end
| 57>
| 58> * xyz 0 1
| 59>   C                    : -1.450184            -1.622072            3.478730
| 60>   O                    : -0.620804            -2.459296            2.638625
| 61>   H                    : -1.236569            -2.930839            2.061761
| 62>   H                    : -0.843443            -0.982371            4.031398
| 63>   H                    : -2.157079            -1.009784            2.875178
| 64>   H                    : -2.096073            -2.239981            4.112396
| 65>   C                      1.720387             0.254401             2.862474
| 66>   O                      1.437891             -0.553017            1.745106
| 67>   H                      1.135046             -1.350429            2.138803
| 68>   H                      0.852401             0.675602             3.353505
| 69>   H                      2.415632             -0.354741            3.568618
| 70>   H                      2.207707             1.073727             2.452199
| 71> *
| 72>
| 73>                          ****END OF INPUT****
 Total Charge           Charge          ....    0
 Multiplicity           Mult            ....    1
 Number of Electrons    NEL             ....   36
Dispersion correction           -0.002081264
FINAL SINGLE POINT ENERGY      -231.469669140195
Dispersion correction           -0.000237979
FINAL SINGLE POINT ENERGY      -115.734491119770

CARTESIAN COORDINATES (ANGSTROEM)
---------------------------------
  C     -1.450184   -1.622072    3.478730
  O     -0.620804   -2.459296    2.638625
  H     -1.236569   -2.930839    2.061761
  H     -0.843443   -0.982371    4.031398
  H     -2.157079   -1.009784    2.875178
  H     -2.096073   -2.239981    4.112396
  C      1.720387    0.254401    2.862474
  O      1.437891   -0.553017    1.745106
  H      1.135046   -1.350429    2.138803
  H      0.852401    0.675602    3.353505
  H      2.415632   -0.354741    3.568618
  H      2.207707    1.073727    2.452199

 Multiplicity           Mult            ....    1
 Number of Electrons    NEL             ....   18
 Basis Dimension        Dim             ....  172

ORBITAL ENERGIES
----------------

  NO   OCC          E(Eh)            E(eV)
   0   2.0000     -19.229765      -523.2685
   1   2.0000     -10.312428      -280.6154
   2   2.0000      -1.146974       -31.2107
   3   2.0000      -0.796443       -21.6723
   4   2.0000      -0.610603       -16.6153
   5   2.0000      -0.548224       -14.9179
   6   2.0000      -0.526780       -14.3344
   7   2.0000      -0.440266       -11.9802
   8   2.0000      -0.375223       -10.2103
   9   0.0000       0.075249         2.0476
  10   0.0000       0.133201         3.6246
  11   0.0000       0.144612         3.9351
  12   0.0000       0.180947         4.9238
  13   0.0000       0.188928         5.1410

MULLIKEN ATOMIC CHARGES
-----------------------
   0 C :   -0.006503
   1 O :   -0.002118
   2 H :   -0.000326
   3 H :    0.001412
   4 H :    0.000429
   5 H :   -0.000108
   6 C :   -0.174982
   7 O :   -0.453268
   8 H :    0.308803
   9 H :    0.103906
  10 H :    0.097518
  11 H :    0.125235
Sum of atomic charges:   -0.0000000

LOEWDIN ATOMIC CHARGES
----------------------
   0 C :   -0.007144
   1 O :   -0.013349
   2 H :   -0.000822
   3 H :   -0.003308
   4 H :   -0.000232
   5 H :   -0.000117
   6 C :   -0.385377
   7 O :   -0.049597
   8 H :    0.160332
   9 H :    0.094065
  10 H :    0.109173
  11 H :    0.096377

  Mayer bond orders larger than 0.1
B(  6-C ,  7-O ) :   1.0058 B(  6-C ,  9-H ) :   0.9650 B(  6-C , 10-H ) :   0.9846
B(  6-C , 11-H ) :   0.9808 B(  7-O ,  8-H ) :   0.9109

Dispersion correction           -0.000218285
FINAL SINGLE POINT ENERGY      -115.729207461665

DIPOLE MOMENT
-------------
                                X             Y             Z
Electronic contribution:     -0.38528      -0.85959      -1.50324
Nuclear contribution   :      0.30531       0.70905       2.13725
                        -----------------------------------------
Total Dipole Moment    :     -0.07997      -0.15054       0.63401
                        -----------------------------------------
Magnitude (a.u.)       :      0.65652
Magnitude (Debye)      :      1.66875

Rotational constants in cm-1:     4.190176     0.853183     0.822925
Rotational constants in MHz : 125618.308217 25577.778883 24670.660398

                             ****ORCA TERMINATED NORMALLY****
TOTAL RUN TIME: 0 days 0 hours 1 minutes 9 seconds 401 msec
