                         Program Version 4.1.2  - RELEASE  -
|  1> #Run DFT-D3 single point of the dimer
|  2> ! wB97X-D3 def2-TZVP TIGHTSCF CHELPG PMODEL PAL8
|  3>
|  4> %base "16-33_DFT_AB"
|  5>
|  6> %scf
|  7> MaxIter 1000
|  8> end
|  9>
| 10> * xyz 0 1
| 11>   C                      -9.948473            -1.812941            5.438624
| 12>   O                      -9.656483            -1.904055            6.869065
| 13>   H                      -8.898172            -2.436655            7.042660
| 14>   H                      -10.795136           -1.169837            5.194730
| 15>   H                      -9.039130            -1.454169            4.871001
| 16>   H                      -10.203844           -2.769139            4.921275
| 17>   C                      -6.937713            2.373086             6.655401
| 18>   O                      -5.794244            1.905989             5.977256
| 19>   H                      -5.128187            2.605545             6.038818
| 20>   H                      -6.876055            2.211186             7.722361
| 21>   H                      -7.201990            3.407024             6.351372
| 22>   H                      -7.791973            1.711379             6.400325
| 23> *
| 24>
| 25> #Run DFT-D3 single point of the molecule with dimer basis set
| 26> $new_job
| 27> %base "16-33_DFT_A"
| 28> ! wB97X-D3 def2-TZVP TIGHTSCF CHELPG PMODEL
| 29>
| 30> %scf
| 31> MaxIter 1000
| 32> end
| 33>
| 34> * xyz 0 1
| 35>   C                      -9.948473            -1.812941            5.438624
| 36>   O                      -9.656483            -1.904055            6.869065
| 37>   H                      -8.898172            -2.436655            7.042660
| 38>   H                      -10.795136           -1.169837            5.194730
| 39>   H                      -9.039130            -1.454169            4.871001
| 40>   H                      -10.203844           -2.769139            4.921275
| 41>   C                    : -6.937713            2.373086             6.655401
| 42>   O                    : -5.794244            1.905989             5.977256
| 43>   H                    : -5.128187            2.605545             6.038818
| 44>   H                    : -6.876055            2.211186             7.722361
| 45>   H                    : -7.201990            3.407024             6.351372
| 46>   H                    : -7.791973            1.711379             6.400325
| 47> *
| 48>
| 49> #Run DFT-D3 single point of the particle with dimer basis set
| 50> $new_job
| 51> %base "16-33_DFT_B"
| 52> ! wB97X-D3 def2-TZVP TIGHTSCF CHELPG PMODEL
| 53>
| 54> %scf
| 55> MaxIter 1000
| 56> end
| 57>
| 58> * xyz 0 1
| 59>   C                    : -9.948473            -1.812941            5.438624
| 60>   O                    : -9.656483            -1.904055            6.869065
| 61>   H                    : -8.898172            -2.436655            7.042660
| 62>   H                    : -10.795136           -1.169837            5.194730
| 63>   H                    : -9.039130            -1.454169            4.871001
| 64>   H                    : -10.203844           -2.769139            4.921275
| 65>   C                      -6.937713            2.373086             6.655401
| 66>   O                      -5.794244            1.905989             5.977256
| 67>   H                      -5.128187            2.605545             6.038818
| 68>   H                      -6.876055            2.211186             7.722361
| 69>   H                      -7.201990            3.407024             6.351372
| 70>   H                      -7.791973            1.711379             6.400325
| 71> *
| 72>
| 73>                          ****END OF INPUT****
 Total Charge           Charge          ....    0
 Multiplicity           Mult            ....    1
 Number of Electrons    NEL             ....   36
Dispersion correction           -0.000836085
FINAL SINGLE POINT ENERGY      -231.465768921777
Dispersion correction           -0.000296861
FINAL SINGLE POINT ENERGY      -115.730359253635

CARTESIAN COORDINATES (ANGSTROEM)
---------------------------------
  C     -9.948473   -1.812941    5.438624
  O     -9.656483   -1.904055    6.869065
  H     -8.898172   -2.436655    7.042660
  H    -10.795136   -1.169837    5.194730
  H     -9.039130   -1.454169    4.871001
  H    -10.203844   -2.769139    4.921275
  C     -6.937713    2.373086    6.655401
  O     -5.794244    1.905989    5.977256
  H     -5.128187    2.605545    6.038818
  H     -6.876055    2.211186    7.722361
  H     -7.201990    3.407024    6.351372
  H     -7.791973    1.711379    6.400325

 Multiplicity           Mult            ....    1
 Number of Electrons    NEL             ....   18
 Basis Dimension        Dim             ....  172

ORBITAL ENERGIES
----------------

  NO   OCC          E(Eh)            E(eV)
   0   2.0000     -19.231129      -523.3056
   1   2.0000     -10.313995      -280.6581
   2   2.0000      -1.136876       -30.9360
   3   2.0000      -0.793148       -21.5827
   4   2.0000      -0.606964       -16.5163
   5   2.0000      -0.549551       -14.9540
   6   2.0000      -0.523344       -14.2409
   7   2.0000      -0.429812       -11.6958
   8   2.0000      -0.374358       -10.1868
   9   0.0000       0.085803         2.3348
  10   0.0000       0.116538         3.1712
  11   0.0000       0.152894         4.1605
  12   0.0000       0.164938         4.4882
  13   0.0000       0.182200         4.9579

MULLIKEN ATOMIC CHARGES
-----------------------
   0 C :   -0.000146
   1 O :   -0.000008
   2 H :   -0.000003
   3 H :   -0.000010
   4 H :    0.000115
   5 H :    0.000004
   6 C :   -0.167821
   7 O :   -0.471055
   8 H :    0.315130
   9 H :    0.106346
  10 H :    0.101976
  11 H :    0.115473
Sum of atomic charges:   -0.0000000

LOEWDIN ATOMIC CHARGES
----------------------
   0 C :   -0.000233
   1 O :   -0.000019
   2 H :   -0.000009
   3 H :   -0.000014
   4 H :   -0.000063
   5 H :   -0.000002
   6 C :   -0.397435
   7 O :   -0.077961
   8 H :    0.173780
   9 H :    0.092105
  10 H :    0.098311
  11 H :    0.111540

  Mayer bond orders larger than 0.1
B(  6-C ,  7-O ) :   1.0081 B(  6-C ,  9-H ) :   0.9730 B(  6-C , 10-H ) :   0.9784
B(  6-C , 11-H ) :   0.9747 B(  7-O ,  8-H ) :   0.8991

Dispersion correction           -0.000242509
FINAL SINGLE POINT ENERGY      -115.734544767209

DIPOLE MOMENT
-------------
                                X             Y             Z
Electronic contribution:      1.47897      -0.62964      -0.87831
Nuclear contribution   :     -1.51723       1.23471       1.17655
                        -----------------------------------------
Total Dipole Moment    :     -0.03826       0.60507       0.29824
                        -----------------------------------------
Magnitude (a.u.)       :      0.67566
Magnitude (Debye)      :      1.71739

Rotational constants in cm-1:     4.241585     0.835470     0.804862
Rotational constants in MHz : 127159.515403 25046.747593 24129.160488

                             ****ORCA TERMINATED NORMALLY****
TOTAL RUN TIME: 0 days 0 hours 1 minutes 1 seconds 861 msec
