                         Program Version 4.1.2  - RELEASE  -
|  1> #Run DFT-D3 single point of the dimer
|  2> ! wB97X-D3 def2-TZVP TIGHTSCF CHELPG PMODEL PAL8
|  3>
|  4> %base "4-102_DFT_AB"
|  5>
|  6> %scf
|  7> MaxIter 1000
|  8> end
|  9>
| 10> * xyz 0 1
| 11>   C                      -2.198624            9.615270             1.579089
| 12>   O                      -2.591249            8.515751             2.357670
| 13>   H                      -3.042198            8.817431             3.150511
| 14>   H                      -2.964768            10.342810            1.400862
| 15>   H                      -1.380174            10.190098            2.092665
| 16>   H                      -1.801923            9.420872             0.610234
| 17>   C                      -2.016880            4.809424             2.035000
| 18>   O                      -2.467561            4.013054             0.920173
| 19>   H                      -2.816174            4.614462             0.268623
| 20>   H                      -2.962136            5.113997             2.650256
| 21>   H                      -1.414692            4.168036             2.712443
| 22>   H                      -1.499624            5.705090             1.621010
| 23> *
| 24>
| 25> #Run DFT-D3 single point of the molecule with dimer basis set
| 26> $new_job
| 27> %base "4-102_DFT_A"
| 28> ! wB97X-D3 def2-TZVP TIGHTSCF CHELPG PMODEL
| 29>
| 30> %scf
| 31> MaxIter 1000
| 32> end
| 33>
| 34> * xyz 0 1
| 35>   C                      -2.198624            9.615270             1.579089
| 36>   O                      -2.591249            8.515751             2.357670
| 37>   H                      -3.042198            8.817431             3.150511
| 38>   H                      -2.964768            10.342810            1.400862
| 39>   H                      -1.380174            10.190098            2.092665
| 40>   H                      -1.801923            9.420872             0.610234
| 41>   C                    : -2.016880            4.809424             2.035000
| 42>   O                    : -2.467561            4.013054             0.920173
| 43>   H                    : -2.816174            4.614462             0.268623
| 44>   H                    : -2.962136            5.113997             2.650256
| 45>   H                    : -1.414692            4.168036             2.712443
| 46>   H                    : -1.499624            5.705090             1.621010
| 47> *
| 48>
| 49> #Run DFT-D3 single point of the particle with dimer basis set
| 50> $new_job
| 51> %base "4-102_DFT_B"
| 52> ! wB97X-D3 def2-TZVP TIGHTSCF CHELPG PMODEL
| 53>
| 54> %scf
| 55> MaxIter 1000
| 56> end
| 57>
| 58> * xyz 0 1
| 59>   C                    : -2.198624            9.615270             1.579089
| 60>   O                    : -2.591249            8.515751             2.357670
| 61>   H                    : -3.042198            8.817431             3.150511
| 62>   H                    : -2.964768            10.342810            1.400862
| 63>   H                    : -1.380174            10.190098            2.092665
| 64>   H                    : -1.801923            9.420872             0.610234
| 65>   C                      -2.016880            4.809424             2.035000
| 66>   O                      -2.467561            4.013054             0.920173
| 67>   H                      -2.816174            4.614462             0.268623
| 68>   H                      -2.962136            5.113997             2.650256
| 69>   H                      -1.414692            4.168036             2.712443
| 70>   H                      -1.499624            5.705090             1.621010
| 71> *
| 72>
| 73>                          ****END OF INPUT****
 Total Charge           Charge          ....    0
 Multiplicity           Mult            ....    1
 Number of Electrons    NEL             ....   36
Dispersion correction           -0.001192537
FINAL SINGLE POINT ENERGY      -231.464810664481
Dispersion correction           -0.000249903
FINAL SINGLE POINT ENERGY      -115.732088493933

CARTESIAN COORDINATES (ANGSTROEM)
---------------------------------
  C     -2.198624    9.615270    1.579089
  O     -2.591249    8.515751    2.357670
  H     -3.042198    8.817431    3.150511
  H     -2.964768   10.342810    1.400862
  H     -1.380174   10.190098    2.092665
  H     -1.801923    9.420872    0.610234
  C     -2.016880    4.809424    2.035000
  O     -2.467561    4.013054    0.920173
  H     -2.816174    4.614462    0.268623
  H     -2.962136    5.113997    2.650256
  H     -1.414692    4.168036    2.712443
  H     -1.499624    5.705090    1.621010

 Multiplicity           Mult            ....    1
 Number of Electrons    NEL             ....   18
 Basis Dimension        Dim             ....  172

ORBITAL ENERGIES
----------------

  NO   OCC          E(Eh)            E(eV)
   0   2.0000     -19.226829      -523.1886
   1   2.0000     -10.328361      -281.0490
   2   2.0000      -1.129178       -30.7265
   3   2.0000      -0.787037       -21.4164
   4   2.0000      -0.602269       -16.3886
   5   2.0000      -0.535723       -14.5778
   6   2.0000      -0.522892       -14.2286
   7   2.0000      -0.435524       -11.8512
   8   2.0000      -0.369297       -10.0491
   9   0.0000       0.077140         2.0991
  10   0.0000       0.114508         3.1159
  11   0.0000       0.143555         3.9063
  12   0.0000       0.163804         4.4573
  13   0.0000       0.180683         4.9166

MULLIKEN ATOMIC CHARGES
-----------------------
   0 C :   -0.000334
   1 O :   -0.000200
   2 H :   -0.000139
   3 H :   -0.000003
   4 H :    0.000013
   5 H :   -0.000043
   6 C :   -0.169080
   7 O :   -0.475139
   8 H :    0.310507
   9 H :    0.099139
  10 H :    0.125420
  11 H :    0.109858
Sum of atomic charges:    0.0000000

LOEWDIN ATOMIC CHARGES
----------------------
   0 C :   -0.000387
   1 O :   -0.001110
   2 H :   -0.000192
   3 H :   -0.000007
   4 H :   -0.000005
   5 H :   -0.000050
   6 C :   -0.373969
   7 O :   -0.100801
   8 H :    0.159875
   9 H :    0.106324
  10 H :    0.110177
  11 H :    0.100145

  Mayer bond orders larger than 0.1
B(  6-C ,  7-O ) :   0.9920 B(  6-C ,  9-H ) :   0.9736 B(  6-C , 10-H ) :   0.9693
B(  6-C , 11-H ) :   0.9766 B(  7-O ,  8-H ) :   0.9038

Dispersion correction           -0.000246986
FINAL SINGLE POINT ENERGY      -115.731124341940

DIPOLE MOMENT
-------------
                                X             Y             Z
Electronic contribution:     -0.35078      -1.09636      -1.32443
Nuclear contribution   :      0.32877       1.78459       1.35310
                        -----------------------------------------
Total Dipole Moment    :     -0.02201       0.68822       0.02867
                        -----------------------------------------
Magnitude (a.u.)       :      0.68917
Magnitude (Debye)      :      1.75174

Rotational constants in cm-1:     3.958067     0.810099     0.780719
Rotational constants in MHz : 118659.861553 24286.152048 23405.378205

                             ****ORCA TERMINATED NORMALLY****
TOTAL RUN TIME: 0 days 0 hours 1 minutes 34 seconds 811 msec
