                         Program Version 4.1.2  - RELEASE  -
|  1> #Run DFT-D3 single point of the dimer
|  2> ! wB97X-D3 def2-TZVP TIGHTSCF CHELPG PMODEL PAL8
|  3>
|  4> %base "8-24_DFT_AB"
|  5>
|  6> %scf
|  7> MaxIter 1000
|  8> end
|  9>
| 10> * xyz 0 1
| 11>   C                      1.242681             -1.490844            -1.242399
| 12>   O                      2.017750             -2.223303            -0.392427
| 13>   H                      2.854270             -2.385998            -0.915143
| 14>   H                      0.235646             -1.382705            -0.890573
| 15>   H                      1.563453             -0.460555            -1.422829
| 16>   H                      1.015853             -1.921014            -2.215583
| 17>   C                      3.227038             0.299315             2.583247
| 18>   O                      2.666419             0.055697             1.319139
| 19>   H                      2.532418             -0.879725            1.086573
| 20>   H                      4.019190             -0.355166            2.838296
| 21>   H                      3.630524             1.336282             2.668777
| 22>   H                      2.489073             0.331264             3.443880
| 23> *
| 24>
| 25> #Run DFT-D3 single point of the molecule with dimer basis set
| 26> $new_job
| 27> %base "8-24_DFT_A"
| 28> ! wB97X-D3 def2-TZVP TIGHTSCF CHELPG PMODEL
| 29>
| 30> %scf
| 31> MaxIter 1000
| 32> end
| 33>
| 34> * xyz 0 1
| 35>   C                      1.242681             -1.490844            -1.242399
| 36>   O                      2.017750             -2.223303            -0.392427
| 37>   H                      2.854270             -2.385998            -0.915143
| 38>   H                      0.235646             -1.382705            -0.890573
| 39>   H                      1.563453             -0.460555            -1.422829
| 40>   H                      1.015853             -1.921014            -2.215583
| 41>   C                    : 3.227038             0.299315             2.583247
| 42>   O                    : 2.666419             0.055697             1.319139
| 43>   H                    : 2.532418             -0.879725            1.086573
| 44>   H                    : 4.019190             -0.355166            2.838296
| 45>   H                    : 3.630524             1.336282             2.668777
| 46>   H                    : 2.489073             0.331264             3.443880
| 47> *
| 48>
| 49> #Run DFT-D3 single point of the particle with dimer basis set
| 50> $new_job
| 51> %base "8-24_DFT_B"
| 52> ! wB97X-D3 def2-TZVP TIGHTSCF CHELPG PMODEL
| 53>
| 54> %scf
| 55> MaxIter 1000
| 56> end
| 57>
| 58> * xyz 0 1
| 59>   C                    : 1.242681             -1.490844            -1.242399
| 60>   O                    : 2.017750             -2.223303            -0.392427
| 61>   H                    : 2.854270             -2.385998            -0.915143
| 62>   H                    : 0.235646             -1.382705            -0.890573
| 63>   H                    : 1.563453             -0.460555            -1.422829
| 64>   H                    : 1.015853             -1.921014            -2.215583
| 65>   C                      3.227038             0.299315             2.583247
| 66>   O                      2.666419             0.055697             1.319139
| 67>   H                      2.532418             -0.879725            1.086573
| 68>   H                      4.019190             -0.355166            2.838296
| 69>   H                      3.630524             1.336282             2.668777
| 70>   H                      2.489073             0.331264             3.443880
| 71> *
| 72>
| 73>                          ****END OF INPUT****
 Total Charge           Charge          ....    0
 Multiplicity           Mult            ....    1
 Number of Electrons    NEL             ....   36
Dispersion correction           -0.001657918
FINAL SINGLE POINT ENERGY      -231.469403517531
Dispersion correction           -0.000235095
FINAL SINGLE POINT ENERGY      -115.730104314125

CARTESIAN COORDINATES (ANGSTROEM)
---------------------------------
  C      1.242681   -1.490844   -1.242399
  O      2.017750   -2.223303   -0.392427
  H      2.854270   -2.385998   -0.915143
  H      0.235646   -1.382705   -0.890573
  H      1.563453   -0.460555   -1.422829
  H      1.015853   -1.921014   -2.215583
  C      3.227038    0.299315    2.583247
  O      2.666419    0.055697    1.319139
  H      2.532418   -0.879725    1.086573
  H      4.019190   -0.355166    2.838296
  H      3.630524    1.336282    2.668777
  H      2.489073    0.331264    3.443880

 Multiplicity           Mult            ....    1
 Number of Electrons    NEL             ....   18
 Basis Dimension        Dim             ....  172

ORBITAL ENERGIES
----------------

  NO   OCC          E(Eh)            E(eV)
   0   2.0000     -19.233219      -523.3625
   1   2.0000     -10.316094      -280.7152
   2   2.0000      -1.133701       -30.8496
   3   2.0000      -0.798173       -21.7194
   4   2.0000      -0.617208       -16.7951
   5   2.0000      -0.542093       -14.7511
   6   2.0000      -0.522801       -14.2261
   7   2.0000      -0.424393       -11.5483
   8   2.0000      -0.372533       -10.1371
   9   0.0000       0.078399         2.1333
  10   0.0000       0.130746         3.5578
  11   0.0000       0.149985         4.0813
  12   0.0000       0.173924         4.7327
  13   0.0000       0.198912         5.4127

MULLIKEN ATOMIC CHARGES
-----------------------
   0 C :   -0.000185
   1 O :   -0.000074
   2 H :   -0.000744
   3 H :   -0.000157
   4 H :   -0.002639
   5 H :   -0.000089
   6 C :   -0.157531
   7 O :   -0.475077
   8 H :    0.317806
   9 H :    0.110054
  10 H :    0.117240
  11 H :    0.091395
Sum of atomic charges:    0.0000000

LOEWDIN ATOMIC CHARGES
----------------------
   0 C :   -0.008169
   1 O :   -0.012732
   2 H :   -0.001540
   3 H :   -0.000374
   4 H :   -0.002313
   5 H :   -0.000079
   6 C :   -0.397949
   7 O :   -0.062879
   8 H :    0.186282
   9 H :    0.087259
  10 H :    0.113341
  11 H :    0.099154

  Mayer bond orders larger than 0.1
B(  6-C ,  7-O ) :   1.0043 B(  6-C ,  9-H ) :   0.9772 B(  6-C , 10-H ) :   0.9730
B(  6-C , 11-H ) :   0.9731 B(  7-O ,  8-H ) :   0.8906

Dispersion correction           -0.000278452
FINAL SINGLE POINT ENERGY      -115.731346554150

DIPOLE MOMENT
-------------
                                X             Y             Z
Electronic contribution:     -0.68095      -0.33353      -1.76414
Nuclear contribution   :      0.85211      -0.17203       2.11712
                        -----------------------------------------
Total Dipole Moment    :      0.17116      -0.50556       0.35297
                        -----------------------------------------
Magnitude (a.u.)       :      0.63991
Magnitude (Debye)      :      1.62651

Rotational constants in cm-1:     4.491271     0.814365     0.789673
Rotational constants in MHz : 134644.902491 24414.057547 23673.789803

                             ****ORCA TERMINATED NORMALLY****
TOTAL RUN TIME: 0 days 0 hours 0 minutes 45 seconds 976 msec
