                         Program Version 4.1.2  - RELEASE  -
|  1> #Run DFT-D3 single point of the dimer
|  2> ! wB97X-D3 def2-TZVP TIGHTSCF CHELPG PMODEL PAL8
|  3>
|  4> %base "3-68_DFT_AB"
|  5>
|  6> %scf
|  7> MaxIter 1000
|  8> end
|  9>
| 10> * xyz 0 1
| 11>   C                      -8.550756            3.122368             3.230009
| 12>   O                      -8.562572            2.964860             1.793958
| 13>   H                      -8.190921            3.761981             1.375839
| 14>   H                      -9.274297            2.452273             3.762807
| 15>   H                      -7.574168            2.767367             3.602449
| 16>   H                      -8.847867            4.108928             3.617314
| 17>   C                      -10.784921           2.338398             6.359228
| 18>   O                      -10.385116           3.674964             6.340304
| 19>   H                      -9.422935            3.708324             6.500767
| 20>   H                      -10.580213           1.830706             5.424346
| 21>   H                      -10.286281           1.740670             7.124465
| 22>   H                      -11.849395           2.245584             6.538222
| 23> *
| 24>
| 25> #Run DFT-D3 single point of the molecule with dimer basis set
| 26> $new_job
| 27> %base "3-68_DFT_A"
| 28> ! wB97X-D3 def2-TZVP TIGHTSCF CHELPG PMODEL
| 29>
| 30> %scf
| 31> MaxIter 1000
| 32> end
| 33>
| 34> * xyz 0 1
| 35>   C                      -8.550756            3.122368             3.230009
| 36>   O                      -8.562572            2.964860             1.793958
| 37>   H                      -8.190921            3.761981             1.375839
| 38>   H                      -9.274297            2.452273             3.762807
| 39>   H                      -7.574168            2.767367             3.602449
| 40>   H                      -8.847867            4.108928             3.617314
| 41>   C                    : -10.784921           2.338398             6.359228
| 42>   O                    : -10.385116           3.674964             6.340304
| 43>   H                    : -9.422935            3.708324             6.500767
| 44>   H                    : -10.580213           1.830706             5.424346
| 45>   H                    : -10.286281           1.740670             7.124465
| 46>   H                    : -11.849395           2.245584             6.538222
| 47> *
| 48>
| 49> #Run DFT-D3 single point of the particle with dimer basis set
| 50> $new_job
| 51> %base "3-68_DFT_B"
| 52> ! wB97X-D3 def2-TZVP TIGHTSCF CHELPG PMODEL
| 53>
| 54> %scf
| 55> MaxIter 1000
| 56> end
| 57>
| 58> * xyz 0 1
| 59>   C                    : -8.550756            3.122368             3.230009
| 60>   O                    : -8.562572            2.964860             1.793958
| 61>   H                    : -8.190921            3.761981             1.375839
| 62>   H                    : -9.274297            2.452273             3.762807
| 63>   H                    : -7.574168            2.767367             3.602449
| 64>   H                    : -8.847867            4.108928             3.617314
| 65>   C                      -10.784921           2.338398             6.359228
| 66>   O                      -10.385116           3.674964             6.340304
| 67>   H                      -9.422935            3.708324             6.500767
| 68>   H                      -10.580213           1.830706             5.424346
| 69>   H                      -10.286281           1.740670             7.124465
| 70>   H                      -11.849395           2.245584             6.538222
| 71> *
| 72>
| 73>                          ****END OF INPUT****
 Total Charge           Charge          ....    0
 Multiplicity           Mult            ....    1
 Number of Electrons    NEL             ....   36
Dispersion correction           -0.001794260
FINAL SINGLE POINT ENERGY      -231.468527993782
Dispersion correction           -0.000281362
FINAL SINGLE POINT ENERGY      -115.731256711936

CARTESIAN COORDINATES (ANGSTROEM)
---------------------------------
  C     -8.550756    3.122368    3.230009
  O     -8.562572    2.964860    1.793958
  H     -8.190921    3.761981    1.375839
  H     -9.274297    2.452273    3.762807
  H     -7.574168    2.767367    3.602449
  H     -8.847867    4.108928    3.617314
  C    -10.784921    2.338398    6.359228
  O    -10.385116    3.674964    6.340304
  H     -9.422935    3.708324    6.500767
  H    -10.580213    1.830706    5.424346
  H    -10.286281    1.740670    7.124465
  H    -11.849395    2.245584    6.538222

 Multiplicity           Mult            ....    1
 Number of Electrons    NEL             ....   18
 Basis Dimension        Dim             ....  172

ORBITAL ENERGIES
----------------

  NO   OCC          E(Eh)            E(eV)
   0   2.0000     -19.233619      -523.3734
   1   2.0000     -10.308648      -280.5126
   2   2.0000      -1.139962       -31.0199
   3   2.0000      -0.796496       -21.6738
   4   2.0000      -0.615911       -16.7598
   5   2.0000      -0.540917       -14.7191
   6   2.0000      -0.531739       -14.4694
   7   2.0000      -0.434114       -11.8128
   8   2.0000      -0.372899       -10.1471
   9   0.0000       0.083702         2.2776
  10   0.0000       0.123593         3.3631
  11   0.0000       0.150459         4.0942
  12   0.0000       0.176056         4.7907
  13   0.0000       0.193401         5.2627

MULLIKEN ATOMIC CHARGES
-----------------------
   0 C :   -0.004370
   1 O :   -0.000029
   2 H :   -0.000023
   3 H :    0.005445
   4 H :    0.000229
   5 H :   -0.003395
   6 C :   -0.160294
   7 O :   -0.468325
   8 H :    0.318555
   9 H :    0.090859
  10 H :    0.100368
  11 H :    0.120979
Sum of atomic charges:    0.0000000

LOEWDIN ATOMIC CHARGES
----------------------
   0 C :   -0.005404
   1 O :   -0.000041
   2 H :   -0.000008
   3 H :   -0.005811
   4 H :   -0.000090
   5 H :   -0.002924
   6 C :   -0.398120
   7 O :   -0.062408
   8 H :    0.181653
   9 H :    0.093092
  10 H :    0.094027
  11 H :    0.106035

  Mayer bond orders larger than 0.1
B(  6-C ,  7-O ) :   1.0090 B(  6-C ,  9-H ) :   0.9759 B(  6-C , 10-H ) :   0.9836
B(  6-C , 11-H ) :   0.9772 B(  7-O ,  8-H ) :   0.8948

Dispersion correction           -0.000238560
FINAL SINGLE POINT ENERGY      -115.736268421084

DIPOLE MOMENT
-------------
                                X             Y             Z
Electronic contribution:      0.37350       1.85663      -0.02831
Nuclear contribution   :      0.07418      -2.35380       0.15900
                        -----------------------------------------
Total Dipole Moment    :      0.44768      -0.49717       0.13069
                        -----------------------------------------
Magnitude (a.u.)       :      0.68167
Magnitude (Debye)      :      1.73268

Rotational constants in cm-1:     4.401829     0.844868     0.811509
Rotational constants in MHz : 131963.510927 25328.514615 24328.417593

                             ****ORCA TERMINATED NORMALLY****
TOTAL RUN TIME: 0 days 0 hours 6 minutes 11 seconds 794 msec
