                         Program Version 4.1.2  - RELEASE  -
|  1> #Run DFT-D3 single point of the dimer
|  2> ! wB97X-D3 def2-TZVP TIGHTSCF CHELPG PMODEL PAL8
|  3>
|  4> %base "7-28_DFT_AB"
|  5>
|  6> %scf
|  7> MaxIter 1000
|  8> end
|  9>
| 10> * xyz 0 1
| 11>   C                      0.666390             -0.715815            -0.420100
| 12>   O                      1.567490             0.321839             -0.143165
| 13>   H                      1.326093             1.086254             -0.696441
| 14>   H                      -0.316124            -0.427597            -0.014911
| 15>   H                      0.543968             -0.926248            -1.464179
| 16>   H                      1.024687             -1.624058            0.019191
| 17>   C                      -2.794217            -0.301711            -3.155988
| 18>   O                      -3.923334            -0.784241            -3.820213
| 19>   H                      -4.707109            -0.830497            -3.193386
| 20>   H                      -1.981174            -0.076518            -3.770836
| 21>   H                      -3.087698            0.587194             -2.615618
| 22>   H                      -2.514014            -0.911451            -2.360211
| 23> *
| 24>
| 25> #Run DFT-D3 single point of the molecule with dimer basis set
| 26> $new_job
| 27> %base "7-28_DFT_A"
| 28> ! wB97X-D3 def2-TZVP TIGHTSCF CHELPG PMODEL
| 29>
| 30> %scf
| 31> MaxIter 1000
| 32> end
| 33>
| 34> * xyz 0 1
| 35>   C                      0.666390             -0.715815            -0.420100
| 36>   O                      1.567490             0.321839             -0.143165
| 37>   H                      1.326093             1.086254             -0.696441
| 38>   H                      -0.316124            -0.427597            -0.014911
| 39>   H                      0.543968             -0.926248            -1.464179
| 40>   H                      1.024687             -1.624058            0.019191
| 41>   C                    : -2.794217            -0.301711            -3.155988
| 42>   O                    : -3.923334            -0.784241            -3.820213
| 43>   H                    : -4.707109            -0.830497            -3.193386
| 44>   H                    : -1.981174            -0.076518            -3.770836
| 45>   H                    : -3.087698            0.587194             -2.615618
| 46>   H                    : -2.514014            -0.911451            -2.360211
| 47> *
| 48>
| 49> #Run DFT-D3 single point of the particle with dimer basis set
| 50> $new_job
| 51> %base "7-28_DFT_B"
| 52> ! wB97X-D3 def2-TZVP TIGHTSCF CHELPG PMODEL
| 53>
| 54> %scf
| 55> MaxIter 1000
| 56> end
| 57>
| 58> * xyz 0 1
| 59>   C                    : 0.666390             -0.715815            -0.420100
| 60>   O                    : 1.567490             0.321839             -0.143165
| 61>   H                    : 1.326093             1.086254             -0.696441
| 62>   H                    : -0.316124            -0.427597            -0.014911
| 63>   H                    : 0.543968             -0.926248            -1.464179
| 64>   H                    : 1.024687             -1.624058            0.019191
| 65>   C                      -2.794217            -0.301711            -3.155988
| 66>   O                      -3.923334            -0.784241            -3.820213
| 67>   H                      -4.707109            -0.830497            -3.193386
| 68>   H                      -1.981174            -0.076518            -3.770836
| 69>   H                      -3.087698            0.587194             -2.615618
| 70>   H                      -2.514014            -0.911451            -2.360211
| 71> *
| 72>
| 73>                          ****END OF INPUT****
 Total Charge           Charge          ....    0
 Multiplicity           Mult            ....    1
 Number of Electrons    NEL             ....   36
Dispersion correction           -0.001064180
FINAL SINGLE POINT ENERGY      -231.462615539488
Dispersion correction           -0.000225229
FINAL SINGLE POINT ENERGY      -115.735469893441

CARTESIAN COORDINATES (ANGSTROEM)
---------------------------------
  C      0.666390   -0.715815   -0.420100
  O      1.567490    0.321839   -0.143165
  H      1.326093    1.086254   -0.696441
  H     -0.316124   -0.427597   -0.014911
  H      0.543968   -0.926248   -1.464179
  H      1.024687   -1.624058    0.019191
  C     -2.794217   -0.301711   -3.155988
  O     -3.923334   -0.784241   -3.820213
  H     -4.707109   -0.830497   -3.193386
  H     -1.981174   -0.076518   -3.770836
  H     -3.087698    0.587194   -2.615618
  H     -2.514014   -0.911451   -2.360211

 Multiplicity           Mult            ....    1
 Number of Electrons    NEL             ....   18
 Basis Dimension        Dim             ....  172

ORBITAL ENERGIES
----------------

  NO   OCC          E(Eh)            E(eV)
   0   2.0000     -19.229723      -523.2674
   1   2.0000     -10.298124      -280.2262
   2   2.0000      -1.130838       -30.7717
   3   2.0000      -0.801241       -21.8029
   4   2.0000      -0.614194       -16.7131
   5   2.0000      -0.543807       -14.7977
   6   2.0000      -0.536385       -14.5958
   7   2.0000      -0.432374       -11.7655
   8   2.0000      -0.365444        -9.9442
   9   0.0000       0.081452         2.2164
  10   0.0000       0.109288         2.9739
  11   0.0000       0.151908         4.1336
  12   0.0000       0.163896         4.4598
  13   0.0000       0.189190         5.1481

MULLIKEN ATOMIC CHARGES
-----------------------
   0 C :    0.000726
   1 O :   -0.000016
   2 H :   -0.000010
   3 H :   -0.000501
   4 H :   -0.000890
   5 H :   -0.000046
   6 C :   -0.155069
   7 O :   -0.486572
   8 H :    0.319945
   9 H :    0.125931
  10 H :    0.093539
  11 H :    0.102963
Sum of atomic charges:    0.0000000

LOEWDIN ATOMIC CHARGES
----------------------
   0 C :   -0.000927
   1 O :   -0.000011
   2 H :   -0.000002
   3 H :   -0.000406
   4 H :   -0.000547
   5 H :   -0.000007
   6 C :   -0.387045
   7 O :   -0.085850
   8 H :    0.196574
   9 H :    0.099084
  10 H :    0.094788
  11 H :    0.084349

  Mayer bond orders larger than 0.1
B(  6-C ,  7-O ) :   0.9929 B(  6-C ,  9-H ) :   0.9697 B(  6-C , 10-H ) :   0.9906
B(  6-C , 11-H ) :   0.9784 B(  7-O ,  8-H ) :   0.8884

Dispersion correction           -0.000215133
FINAL SINGLE POINT ENERGY      -115.726695597231

DIPOLE MOMENT
-------------
                                X             Y             Z
Electronic contribution:     -1.22878      -0.71085      -1.12751
Nuclear contribution   :      1.19497       0.88056       1.80025
                        -----------------------------------------
Total Dipole Moment    :     -0.03381       0.16971       0.67274
                        -----------------------------------------
Magnitude (a.u.)       :      0.69464
Magnitude (Debye)      :      1.76564

Rotational constants in cm-1:     4.540080     0.855815     0.812601
Rotational constants in MHz : 136108.167538 25656.673322 24361.177151

                             ****ORCA TERMINATED NORMALLY****
TOTAL RUN TIME: 0 days 0 hours 0 minutes 58 seconds 849 msec
