                         Program Version 4.1.2  - RELEASE  -
|  1> #Run DFT-D3 single point of the dimer
|  2> ! wB97X-D3 def2-TZVP TIGHTSCF CHELPG PMODEL PAL8
|  3>
|  4> %base "14-130_DFT_AB"
|  5>
|  6> %scf
|  7> MaxIter 1000
|  8> end
|  9>
| 10> * xyz 0 1
| 11>   C                      -4.769766            -3.580536            9.570225
| 12>   O                      -4.512011            -2.670247            8.537336
| 13>   H                      -4.507633            -1.874928            9.074293
| 14>   H                      -4.004359            -3.378747            10.345685
| 15>   H                      -5.746053            -3.566870            10.002338
| 16>   H                      -4.559165            -4.618552            9.236661
| 17>   C                      -2.959016            -4.795412            6.220165
| 18>   O                      -2.797570            -3.381077            6.160881
| 19>   H                      -2.926890            -3.040397            7.064037
| 20>   H                      -3.772046            -5.074575            6.880793
| 21>   H                      -3.078186            -5.266677            5.185687
| 22>   H                      -2.072949            -5.202316            6.634486
| 23> *
| 24>
| 25> #Run DFT-D3 single point of the molecule with dimer basis set
| 26> $new_job
| 27> %base "14-130_DFT_A"
| 28> ! wB97X-D3 def2-TZVP TIGHTSCF CHELPG PMODEL
| 29>
| 30> %scf
| 31> MaxIter 1000
| 32> end
| 33>
| 34> * xyz 0 1
| 35>   C                      -4.769766            -3.580536            9.570225
| 36>   O                      -4.512011            -2.670247            8.537336
| 37>   H                      -4.507633            -1.874928            9.074293
| 38>   H                      -4.004359            -3.378747            10.345685
| 39>   H                      -5.746053            -3.566870            10.002338
| 40>   H                      -4.559165            -4.618552            9.236661
| 41>   C                    : -2.959016            -4.795412            6.220165
| 42>   O                    : -2.797570            -3.381077            6.160881
| 43>   H                    : -2.926890            -3.040397            7.064037
| 44>   H                    : -3.772046            -5.074575            6.880793
| 45>   H                    : -3.078186            -5.266677            5.185687
| 46>   H                    : -2.072949            -5.202316            6.634486
| 47> *
| 48>
| 49> #Run DFT-D3 single point of the particle with dimer basis set
| 50> $new_job
| 51> %base "14-130_DFT_B"
| 52> ! wB97X-D3 def2-TZVP TIGHTSCF CHELPG PMODEL
| 53>
| 54> %scf
| 55> MaxIter 1000
| 56> end
| 57>
| 58> * xyz 0 1
| 59>   C                    : -4.769766            -3.580536            9.570225
| 60>   O                    : -4.512011            -2.670247            8.537336
| 61>   H                    : -4.507633            -1.874928            9.074293
| 62>   H                    : -4.004359            -3.378747            10.345685
| 63>   H                    : -5.746053            -3.566870            10.002338
| 64>   H                    : -4.559165            -4.618552            9.236661
| 65>   C                      -2.959016            -4.795412            6.220165
| 66>   O                      -2.797570            -3.381077            6.160881
| 67>   H                      -2.926890            -3.040397            7.064037
| 68>   H                      -3.772046            -5.074575            6.880793
| 69>   H                      -3.078186            -5.266677            5.185687
| 70>   H                      -2.072949            -5.202316            6.634486
| 71> *
| 72>
| 73>                          ****END OF INPUT****
 Total Charge           Charge          ....    0
 Multiplicity           Mult            ....    1
 Number of Electrons    NEL             ....   36
Dispersion correction           -0.001920396
FINAL SINGLE POINT ENERGY      -231.468763054538
Dispersion correction           -0.000208334
FINAL SINGLE POINT ENERGY      -115.730515689339

CARTESIAN COORDINATES (ANGSTROEM)
---------------------------------
  C     -4.769766   -3.580536    9.570225
  O     -4.512011   -2.670247    8.537336
  H     -4.507633   -1.874928    9.074293
  H     -4.004359   -3.378747   10.345685
  H     -5.746053   -3.566870   10.002338
  H     -4.559165   -4.618552    9.236661
  C     -2.959016   -4.795412    6.220165
  O     -2.797570   -3.381077    6.160881
  H     -2.926890   -3.040397    7.064037
  H     -3.772046   -5.074575    6.880793
  H     -3.078186   -5.266677    5.185687
  H     -2.072949   -5.202316    6.634486

 Multiplicity           Mult            ....    1
 Number of Electrons    NEL             ....   18
 Basis Dimension        Dim             ....  172

ORBITAL ENERGIES
----------------

  NO   OCC          E(Eh)            E(eV)
   0   2.0000     -19.230585      -523.2908
   1   2.0000     -10.314048      -280.6595
   2   2.0000      -1.130744       -30.7691
   3   2.0000      -0.793614       -21.5953
   4   2.0000      -0.608286       -16.5523
   5   2.0000      -0.542047       -14.7498
   6   2.0000      -0.524280       -14.2664
   7   2.0000      -0.435288       -11.8448
   8   2.0000      -0.371620       -10.1123
   9   0.0000       0.068922         1.8755
  10   0.0000       0.134633         3.6635
  11   0.0000       0.141247         3.8435
  12   0.0000       0.178479         4.8567
  13   0.0000       0.185228         5.0403

MULLIKEN ATOMIC CHARGES
-----------------------
   0 C :   -0.001282
   1 O :   -0.004139
   2 H :   -0.000379
   3 H :    0.000061
   4 H :   -0.000021
   5 H :   -0.000205
   6 C :   -0.172888
   7 O :   -0.471743
   8 H :    0.315158
   9 H :    0.107108
  10 H :    0.119122
  11 H :    0.109209
Sum of atomic charges:   -0.0000000

LOEWDIN ATOMIC CHARGES
----------------------
   0 C :   -0.003801
   1 O :   -0.011857
   2 H :   -0.000755
   3 H :   -0.000058
   4 H :   -0.000052
   5 H :   -0.002461
   6 C :   -0.376102
   7 O :   -0.085154
   8 H :    0.179068
   9 H :    0.094513
  10 H :    0.118392
  11 H :    0.088266

  Mayer bond orders larger than 0.1
B(  6-C ,  7-O ) :   0.9907 B(  6-C ,  9-H ) :   0.9766 B(  6-C , 10-H ) :   0.9692
B(  6-C , 11-H ) :   0.9846 B(  7-O ,  8-H ) :   0.9007

Dispersion correction           -0.000233824
FINAL SINGLE POINT ENERGY      -115.732834528137

DIPOLE MOMENT
-------------
                                X             Y             Z
Electronic contribution:      0.17892       1.78433      -0.23992
Nuclear contribution   :     -0.31280      -2.14978       0.83550
                        -----------------------------------------
Total Dipole Moment    :     -0.13388      -0.36545       0.59558
                        -----------------------------------------
Magnitude (a.u.)       :      0.71147
Magnitude (Debye)      :      1.80842

Rotational constants in cm-1:     4.254617     0.826964     0.786884
Rotational constants in MHz : 127550.216456 24791.749435 23590.186999

                             ****ORCA TERMINATED NORMALLY****
TOTAL RUN TIME: 0 days 0 hours 1 minutes 10 seconds 875 msec
