                         Program Version 4.1.2  - RELEASE  -
|  1> #Run DFT-D3 single point of the dimer
|  2> ! wB97X-D3 def2-TZVP TIGHTSCF CHELPG PMODEL PAL8
|  3>
|  4> %base "3-74_DFT_AB"
|  5>
|  6> %scf
|  7> MaxIter 1000
|  8> end
|  9>
| 10> * xyz 0 1
| 11>   C                      -4.944868            -6.379908            -6.736573
| 12>   O                      -6.142319            -5.643729            -6.610150
| 13>   H                      -6.328640            -5.442620            -7.501184
| 14>   H                      -4.130525            -5.985907            -6.044649
| 15>   H                      -5.172011            -7.357734            -6.328079
| 16>   H                      -4.478197            -6.584611            -7.685240
| 17>   C                      -2.793664            -8.134331            -3.088028
| 18>   O                      -3.895256            -7.291389            -3.248590
| 19>   H                      -4.031382            -6.886609            -2.384556
| 20>   H                      -2.518803            -8.453922            -4.049778
| 21>   H                      -2.005301            -7.562429            -2.620502
| 22>   H                      -2.992806            -9.027853            -2.518333
| 23> *
| 24>
| 25> #Run DFT-D3 single point of the molecule with dimer basis set
| 26> $new_job
| 27> %base "3-74_DFT_A"
| 28> ! wB97X-D3 def2-TZVP TIGHTSCF CHELPG PMODEL
| 29>
| 30> %scf
| 31> MaxIter 1000
| 32> end
| 33>
| 34> * xyz 0 1
| 35>   C                      -4.944868            -6.379908            -6.736573
| 36>   O                      -6.142319            -5.643729            -6.610150
| 37>   H                      -6.328640            -5.442620            -7.501184
| 38>   H                      -4.130525            -5.985907            -6.044649
| 39>   H                      -5.172011            -7.357734            -6.328079
| 40>   H                      -4.478197            -6.584611            -7.685240
| 41>   C                    : -2.793664            -8.134331            -3.088028
| 42>   O                    : -3.895256            -7.291389            -3.248590
| 43>   H                    : -4.031382            -6.886609            -2.384556
| 44>   H                    : -2.518803            -8.453922            -4.049778
| 45>   H                    : -2.005301            -7.562429            -2.620502
| 46>   H                    : -2.992806            -9.027853            -2.518333
| 47> *
| 48>
| 49> #Run DFT-D3 single point of the particle with dimer basis set
| 50> $new_job
| 51> %base "3-74_DFT_B"
| 52> ! wB97X-D3 def2-TZVP TIGHTSCF CHELPG PMODEL
| 53>
| 54> %scf
| 55> MaxIter 1000
| 56> end
| 57>
| 58> * xyz 0 1
| 59>   C                    : -4.944868            -6.379908            -6.736573
| 60>   O                    : -6.142319            -5.643729            -6.610150
| 61>   H                    : -6.328640            -5.442620            -7.501184
| 62>   H                    : -4.130525            -5.985907            -6.044649
| 63>   H                    : -5.172011            -7.357734            -6.328079
| 64>   H                    : -4.478197            -6.584611            -7.685240
| 65>   C                      -2.793664            -8.134331            -3.088028
| 66>   O                      -3.895256            -7.291389            -3.248590
| 67>   H                      -4.031382            -6.886609            -2.384556
| 68>   H                      -2.518803            -8.453922            -4.049778
| 69>   H                      -2.005301            -7.562429            -2.620502
| 70>   H                      -2.992806            -9.027853            -2.518333
| 71> *
| 72>
| 73>                          ****END OF INPUT****
 Total Charge           Charge          ....    0
 Multiplicity           Mult            ....    1
 Number of Electrons    NEL             ....   36
Dispersion correction           -0.001271911
FINAL SINGLE POINT ENERGY      -231.461868162166
Dispersion correction           -0.000252383
FINAL SINGLE POINT ENERGY      -115.726733474036

CARTESIAN COORDINATES (ANGSTROEM)
---------------------------------
  C     -4.944868   -6.379908   -6.736573
  O     -6.142319   -5.643729   -6.610150
  H     -6.328640   -5.442620   -7.501184
  H     -4.130525   -5.985907   -6.044649
  H     -5.172011   -7.357734   -6.328079
  H     -4.478197   -6.584611   -7.685240
  C     -2.793664   -8.134331   -3.088028
  O     -3.895256   -7.291389   -3.248590
  H     -4.031382   -6.886609   -2.384556
  H     -2.518803   -8.453922   -4.049778
  H     -2.005301   -7.562429   -2.620502
  H     -2.992806   -9.027853   -2.518333

 Multiplicity           Mult            ....    1
 Number of Electrons    NEL             ....   18
 Basis Dimension        Dim             ....  172

ORBITAL ENERGIES
----------------

  NO   OCC          E(Eh)            E(eV)
   0   2.0000     -19.229262      -523.2548
   1   2.0000     -10.302780      -280.3529
   2   2.0000      -1.142499       -31.0890
   3   2.0000      -0.798133       -21.7183
   4   2.0000      -0.613997       -16.7077
   5   2.0000      -0.550079       -14.9684
   6   2.0000      -0.530116       -14.4252
   7   2.0000      -0.437859       -11.9148
   8   2.0000      -0.372676       -10.1410
   9   0.0000       0.097051         2.6409
  10   0.0000       0.118799         3.2327
  11   0.0000       0.158875         4.3232
  12   0.0000       0.174850         4.7579
  13   0.0000       0.206691         5.6243

MULLIKEN ATOMIC CHARGES
-----------------------
   0 C :    0.002517
   1 O :   -0.000043
   2 H :   -0.000027
   3 H :   -0.004590
   4 H :   -0.002298
   5 H :   -0.000228
   6 C :   -0.147642
   7 O :   -0.463699
   8 H :    0.310016
   9 H :    0.112061
  10 H :    0.098347
  11 H :    0.095587
Sum of atomic charges:    0.0000000

LOEWDIN ATOMIC CHARGES
----------------------
   0 C :   -0.003060
   1 O :   -0.000012
   2 H :   -0.000005
   3 H :   -0.003134
   4 H :   -0.001155
   5 H :   -0.000022
   6 C :   -0.388304
   7 O :   -0.060475
   8 H :    0.172221
   9 H :    0.099062
  10 H :    0.094093
  11 H :    0.090791

  Mayer bond orders larger than 0.1
B(  6-C ,  7-O ) :   0.9978 B(  6-C ,  9-H ) :   0.9796 B(  6-C , 10-H ) :   0.9874
B(  6-C , 11-H ) :   0.9688 B(  7-O ,  8-H ) :   0.9022

Dispersion correction           -0.000210277
FINAL SINGLE POINT ENERGY      -115.734513499523

DIPOLE MOMENT
-------------
                                X             Y             Z
Electronic contribution:     -1.40153       0.99570      -0.34099
Nuclear contribution   :      1.74973      -1.07611       0.93813
                        -----------------------------------------
Total Dipole Moment    :      0.34820      -0.08041       0.59714
                        -----------------------------------------
Magnitude (a.u.)       :      0.69591
Magnitude (Debye)      :      1.76886

Rotational constants in cm-1:     4.370253     0.862985     0.829839
Rotational constants in MHz : 131016.895619 25871.641449 24877.950052

                             ****ORCA TERMINATED NORMALLY****
TOTAL RUN TIME: 0 days 0 hours 6 minutes 21 seconds 15 msec
