                         Program Version 4.1.2  - RELEASE  -
|  1> #Run DFT-D3 single point of the dimer
|  2> ! wB97X-D3 def2-TZVP TIGHTSCF CHELPG PMODEL PAL8
|  3>
|  4> %base "4-132_DFT_AB"
|  5>
|  6> %scf
|  7> MaxIter 1000
|  8> end
|  9>
| 10> * xyz 0 1
| 11>   C                      7.403587             -9.978403            2.850823
| 12>   O                      8.436868             -10.175592           3.819464
| 13>   H                      8.901432             -9.344453            3.760023
| 14>   H                      6.659822             -10.796634           2.741819
| 15>   H                      6.753976             -9.111193            3.112570
| 16>   H                      7.782467             -9.757799            1.881767
| 17>   C                      10.095339            -6.976327            2.711084
| 18>   O                      9.354405             -7.273151            3.862007
| 19>   H                      8.642711             -6.642811            3.864555
| 20>   H                      10.181727            -5.865649            2.594806
| 21>   H                      10.976786            -7.593750            2.756952
| 22>   H                      9.627140             -7.433392            1.869165
| 23> *
| 24>
| 25> #Run DFT-D3 single point of the molecule with dimer basis set
| 26> $new_job
| 27> %base "4-132_DFT_A"
| 28> ! wB97X-D3 def2-TZVP TIGHTSCF CHELPG PMODEL
| 29>
| 30> %scf
| 31> MaxIter 1000
| 32> end
| 33>
| 34> * xyz 0 1
| 35>   C                      7.403587             -9.978403            2.850823
| 36>   O                      8.436868             -10.175592           3.819464
| 37>   H                      8.901432             -9.344453            3.760023
| 38>   H                      6.659822             -10.796634           2.741819
| 39>   H                      6.753976             -9.111193            3.112570
| 40>   H                      7.782467             -9.757799            1.881767
| 41>   C                    : 10.095339            -6.976327            2.711084
| 42>   O                    : 9.354405             -7.273151            3.862007
| 43>   H                    : 8.642711             -6.642811            3.864555
| 44>   H                    : 10.181727            -5.865649            2.594806
| 45>   H                    : 10.976786            -7.593750            2.756952
| 46>   H                    : 9.627140             -7.433392            1.869165
| 47> *
| 48>
| 49> #Run DFT-D3 single point of the particle with dimer basis set
| 50> $new_job
| 51> %base "4-132_DFT_B"
| 52> ! wB97X-D3 def2-TZVP TIGHTSCF CHELPG PMODEL
| 53>
| 54> %scf
| 55> MaxIter 1000
| 56> end
| 57>
| 58> * xyz 0 1
| 59>   C                    : 7.403587             -9.978403            2.850823
| 60>   O                    : 8.436868             -10.175592           3.819464
| 61>   H                    : 8.901432             -9.344453            3.760023
| 62>   H                    : 6.659822             -10.796634           2.741819
| 63>   H                    : 6.753976             -9.111193            3.112570
| 64>   H                    : 7.782467             -9.757799            1.881767
| 65>   C                      10.095339            -6.976327            2.711084
| 66>   O                      9.354405             -7.273151            3.862007
| 67>   H                      8.642711             -6.642811            3.864555
| 68>   H                      10.181727            -5.865649            2.594806
| 69>   H                      10.976786            -7.593750            2.756952
| 70>   H                      9.627140             -7.433392            1.869165
| 71> *
| 72>
| 73>                          ****END OF INPUT****
 Total Charge           Charge          ....    0
 Multiplicity           Mult            ....    1
 Number of Electrons    NEL             ....   36
Dispersion correction           -0.002105753
FINAL SINGLE POINT ENERGY      -231.469121250213
Dispersion correction           -0.000237993
FINAL SINGLE POINT ENERGY      -115.731866598849

CARTESIAN COORDINATES (ANGSTROEM)
---------------------------------
  C      7.403587   -9.978403    2.850823
  O      8.436868  -10.175592    3.819464
  H      8.901432   -9.344453    3.760023
  H      6.659822  -10.796634    2.741819
  H      6.753976   -9.111193    3.112570
  H      7.782467   -9.757799    1.881767
  C     10.095339   -6.976327    2.711084
  O      9.354405   -7.273151    3.862007
  H      8.642711   -6.642811    3.864555
  H     10.181727   -5.865649    2.594806
  H     10.976786   -7.593750    2.756952
  H      9.627140   -7.433392    1.869165

 Multiplicity           Mult            ....    1
 Number of Electrons    NEL             ....   18
 Basis Dimension        Dim             ....  172

ORBITAL ENERGIES
----------------

  NO   OCC          E(Eh)            E(eV)
   0   2.0000     -19.227558      -523.2084
   1   2.0000     -10.309487      -280.5354
   2   2.0000      -1.143986       -31.1294
   3   2.0000      -0.796212       -21.6660
   4   2.0000      -0.612528       -16.6677
   5   2.0000      -0.553173       -15.0526
   6   2.0000      -0.523340       -14.2408
   7   2.0000      -0.439082       -11.9480
   8   2.0000      -0.369150       -10.0451
   9   0.0000       0.091008         2.4765
  10   0.0000       0.128148         3.4871
  11   0.0000       0.154987         4.2174
  12   0.0000       0.182238         4.9589
  13   0.0000       0.188224         5.1218

MULLIKEN ATOMIC CHARGES
-----------------------
   0 C :   -0.001443
   1 O :   -0.001339
   2 H :    0.000884
   3 H :   -0.000419
   4 H :   -0.003770
   5 H :   -0.000342
   6 C :   -0.158082
   7 O :   -0.469895
   8 H :    0.309831
   9 H :    0.107717
  10 H :    0.114900
  11 H :    0.101957
Sum of atomic charges:    0.0000000

LOEWDIN ATOMIC CHARGES
----------------------
   0 C :   -0.005404
   1 O :   -0.003386
   2 H :   -0.027530
   3 H :   -0.000088
   4 H :   -0.001696
   5 H :   -0.000593
   6 C :   -0.391268
   7 O :   -0.036710
   8 H :    0.163700
   9 H :    0.104562
  10 H :    0.108455
  11 H :    0.089959

  Mayer bond orders larger than 0.1
B(  6-C ,  7-O ) :   0.9899 B(  6-C ,  9-H ) :   0.9756 B(  6-C , 10-H ) :   0.9812
B(  6-C , 11-H ) :   0.9782 B(  7-O ,  8-H ) :   0.9037

Dispersion correction           -0.000210722
FINAL SINGLE POINT ENERGY      -115.729930164428

DIPOLE MOMENT
-------------
                                X             Y             Z
Electronic contribution:     -0.75820      -0.36795       1.49662
Nuclear contribution   :      0.60173       0.85702      -1.95040
                        -----------------------------------------
Total Dipole Moment    :     -0.15647       0.48906      -0.45378
                        -----------------------------------------
Magnitude (a.u.)       :      0.68526
Magnitude (Debye)      :      1.74179

Rotational constants in cm-1:     4.212867     0.869388     0.821184
Rotational constants in MHz : 126298.587705 26063.603318 24618.476965

                             ****ORCA TERMINATED NORMALLY****
TOTAL RUN TIME: 0 days 0 hours 1 minutes 30 seconds 844 msec
