                         Program Version 4.1.2  - RELEASE  -
|  1> #Run DFT-D3 single point of the dimer
|  2> ! wB97X-D3 def2-TZVP TIGHTSCF CHELPG PMODEL PAL8
|  3>
|  4> %base "17-200_DFT_AB"
|  5>
|  6> %scf
|  7> MaxIter 1000
|  8> end
|  9>
| 10> * xyz 0 1
| 11>   C                      6.769801             -2.772796            10.995444
| 12>   O                      6.182778             -1.999344            9.977291
| 13>   H                      6.396164             -1.025833            10.069774
| 14>   H                      6.127645             -2.585203            11.827728
| 15>   H                      6.563956             -3.867153            10.783993
| 16>   H                      7.803646             -2.444573            11.191624
| 17>   C                      3.335256             -2.080908            8.211448
| 18>   O                      3.391253             -0.957846            8.954754
| 19>   H                      4.286924             -0.929275            9.319286
| 20>   H                      2.361145             -2.219645            7.766882
| 21>   H                      3.958356             -1.952691            7.293758
| 22>   H                      3.533792             -2.956038            8.799028
| 23> *
| 24>
| 25> #Run DFT-D3 single point of the molecule with dimer basis set
| 26> $new_job
| 27> %base "17-200_DFT_A"
| 28> ! wB97X-D3 def2-TZVP TIGHTSCF CHELPG PMODEL
| 29>
| 30> %scf
| 31> MaxIter 1000
| 32> end
| 33>
| 34> * xyz 0 1
| 35>   C                      6.769801             -2.772796            10.995444
| 36>   O                      6.182778             -1.999344            9.977291
| 37>   H                      6.396164             -1.025833            10.069774
| 38>   H                      6.127645             -2.585203            11.827728
| 39>   H                      6.563956             -3.867153            10.783993
| 40>   H                      7.803646             -2.444573            11.191624
| 41>   C                    : 3.335256             -2.080908            8.211448
| 42>   O                    : 3.391253             -0.957846            8.954754
| 43>   H                    : 4.286924             -0.929275            9.319286
| 44>   H                    : 2.361145             -2.219645            7.766882
| 45>   H                    : 3.958356             -1.952691            7.293758
| 46>   H                    : 3.533792             -2.956038            8.799028
| 47> *
| 48>
| 49> #Run DFT-D3 single point of the particle with dimer basis set
| 50> $new_job
| 51> %base "17-200_DFT_B"
| 52> ! wB97X-D3 def2-TZVP TIGHTSCF CHELPG PMODEL
| 53>
| 54> %scf
| 55> MaxIter 1000
| 56> end
| 57>
| 58> * xyz 0 1
| 59>   C                    : 6.769801             -2.772796            10.995444
| 60>   O                    : 6.182778             -1.999344            9.977291
| 61>   H                    : 6.396164             -1.025833            10.069774
| 62>   H                    : 6.127645             -2.585203            11.827728
| 63>   H                    : 6.563956             -3.867153            10.783993
| 64>   H                    : 7.803646             -2.444573            11.191624
| 65>   C                      3.335256             -2.080908            8.211448
| 66>   O                      3.391253             -0.957846            8.954754
| 67>   H                      4.286924             -0.929275            9.319286
| 68>   H                      2.361145             -2.219645            7.766882
| 69>   H                      3.958356             -1.952691            7.293758
| 70>   H                      3.533792             -2.956038            8.799028
| 71> *
| 72>
| 73>                          ****END OF INPUT****
 Total Charge           Charge          ....    0
 Multiplicity           Mult            ....    1
 Number of Electrons    NEL             ....   36
Dispersion correction           -0.001708429
FINAL SINGLE POINT ENERGY      -231.461947767930
Dispersion correction           -0.000227963
FINAL SINGLE POINT ENERGY      -115.726993239036

CARTESIAN COORDINATES (ANGSTROEM)
---------------------------------
  C      6.769801   -2.772796   10.995444
  O      6.182778   -1.999344    9.977291
  H      6.396164   -1.025833   10.069774
  H      6.127645   -2.585203   11.827728
  H      6.563956   -3.867153   10.783993
  H      7.803646   -2.444573   11.191624
  C      3.335256   -2.080908    8.211448
  O      3.391253   -0.957846    8.954754
  H      4.286924   -0.929275    9.319286
  H      2.361145   -2.219645    7.766882
  H      3.958356   -1.952691    7.293758
  H      3.533792   -2.956038    8.799028

 Multiplicity           Mult            ....    1
 Number of Electrons    NEL             ....   18
 Basis Dimension        Dim             ....  172

ORBITAL ENERGIES
----------------

  NO   OCC          E(Eh)            E(eV)
   0   2.0000     -19.230576      -523.2906
   1   2.0000     -10.304557      -280.4013
   2   2.0000      -1.158866       -31.5344
   3   2.0000      -0.792420       -21.5628
   4   2.0000      -0.617724       -16.8091
   5   2.0000      -0.560057       -15.2399
   6   2.0000      -0.537253       -14.6194
   7   2.0000      -0.423164       -11.5149
   8   2.0000      -0.371341       -10.1047
   9   0.0000       0.069016         1.8780
  10   0.0000       0.127857         3.4792
  11   0.0000       0.145785         3.9670
  12   0.0000       0.176243         4.7958
  13   0.0000       0.192564         5.2399

MULLIKEN ATOMIC CHARGES
-----------------------
   0 C :   -0.000089
   1 O :   -0.001719
   2 H :   -0.000805
   3 H :   -0.000076
   4 H :   -0.000176
   5 H :    0.000001
   6 C :   -0.159980
   7 O :   -0.455388
   8 H :    0.317796
   9 H :    0.112031
  10 H :    0.089512
  11 H :    0.098895
Sum of atomic charges:   -0.0000000

LOEWDIN ATOMIC CHARGES
----------------------
   0 C :   -0.000663
   1 O :   -0.008062
   2 H :   -0.003164
   3 H :   -0.000073
   4 H :   -0.000083
   5 H :   -0.000010
   6 C :   -0.441512
   7 O :   -0.024031
   8 H :    0.183652
   9 H :    0.105370
  10 H :    0.098177
  11 H :    0.090399

  Mayer bond orders larger than 0.1
B(  6-C ,  7-O ) :   1.0046 B(  6-C ,  9-H ) :   0.9721 B(  6-C , 10-H ) :   0.9837
B(  6-C , 11-H ) :   0.9799 B(  7-O ,  8-H ) :   0.9030

Dispersion correction           -0.000204306
FINAL SINGLE POINT ENERGY      -115.730626610060

DIPOLE MOMENT
-------------
                                X             Y             Z
Electronic contribution:     -0.04511       1.50100       1.08195
Nuclear contribution   :      0.55055      -1.87804      -1.11421
                        -----------------------------------------
Total Dipole Moment    :      0.50544      -0.37704      -0.03226
                        -----------------------------------------
Magnitude (a.u.)       :      0.63140
Magnitude (Debye)      :      1.60489

Rotational constants in cm-1:     4.310574     0.895405     0.874084
Rotational constants in MHz : 129227.761126 26843.579905 26204.366773

                             ****ORCA TERMINATED NORMALLY****
TOTAL RUN TIME: 0 days 0 hours 1 minutes 9 seconds 950 msec
