                         Program Version 4.1.2  - RELEASE  -
|  1> #Run DFT-D3 single point of the dimer
|  2> ! wB97X-D3 def2-TZVP TIGHTSCF CHELPG PMODEL PAL8
|  3>
|  4> %base "1-73_DFT_AB"
|  5>
|  6> %scf
|  7> MaxIter 1000
|  8> end
|  9>
| 10> * xyz 0 1
| 11>   C                      5.651281             -6.607152            -7.131808
| 12>   O                      4.421029             -6.172387            -6.635053
| 13>   H                      3.846128             -6.941923            -6.443546
| 14>   H                      6.331579             -5.736460            -7.229165
| 15>   H                      6.041744             -7.382705            -6.519006
| 16>   H                      5.543523             -7.079936            -8.062609
| 17>   C                      3.326192             -9.299605            -6.732269
| 18>   O                      2.496551             -10.299359           -6.136485
| 19>   H                      2.910461             -11.128581           -6.198545
| 20>   H                      4.306500             -9.333767            -6.405769
| 21>   H                      3.357576             -9.239956            -7.782154
| 22>   H                      2.920696             -8.347242            -6.337458
| 23> *
| 24>
| 25> #Run DFT-D3 single point of the molecule with dimer basis set
| 26> $new_job
| 27> %base "1-73_DFT_A"
| 28> ! wB97X-D3 def2-TZVP TIGHTSCF CHELPG PMODEL
| 29>
| 30> %scf
| 31> MaxIter 1000
| 32> end
| 33>
| 34> * xyz 0 1
| 35>   C                      5.651281             -6.607152            -7.131808
| 36>   O                      4.421029             -6.172387            -6.635053
| 37>   H                      3.846128             -6.941923            -6.443546
| 38>   H                      6.331579             -5.736460            -7.229165
| 39>   H                      6.041744             -7.382705            -6.519006
| 40>   H                      5.543523             -7.079936            -8.062609
| 41>   C                    : 3.326192             -9.299605            -6.732269
| 42>   O                    : 2.496551             -10.299359           -6.136485
| 43>   H                    : 2.910461             -11.128581           -6.198545
| 44>   H                    : 4.306500             -9.333767            -6.405769
| 45>   H                    : 3.357576             -9.239956            -7.782154
| 46>   H                    : 2.920696             -8.347242            -6.337458
| 47> *
| 48>
| 49> #Run DFT-D3 single point of the particle with dimer basis set
| 50> $new_job
| 51> %base "1-73_DFT_B"
| 52> ! wB97X-D3 def2-TZVP TIGHTSCF CHELPG PMODEL
| 53>
| 54> %scf
| 55> MaxIter 1000
| 56> end
| 57>
| 58> * xyz 0 1
| 59>   C                    : 5.651281             -6.607152            -7.131808
| 60>   O                    : 4.421029             -6.172387            -6.635053
| 61>   H                    : 3.846128             -6.941923            -6.443546
| 62>   H                    : 6.331579             -5.736460            -7.229165
| 63>   H                    : 6.041744             -7.382705            -6.519006
| 64>   H                    : 5.543523             -7.079936            -8.062609
| 65>   C                      3.326192             -9.299605            -6.732269
| 66>   O                      2.496551             -10.299359           -6.136485
| 67>   H                      2.910461             -11.128581           -6.198545
| 68>   H                      4.306500             -9.333767            -6.405769
| 69>   H                      3.357576             -9.239956            -7.782154
| 70>   H                      2.920696             -8.347242            -6.337458
| 71> *
| 72>
| 73>                          ****END OF INPUT****
 Total Charge           Charge          ....    0
 Multiplicity           Mult            ....    1
 Number of Electrons    NEL             ....   36
Dispersion correction           -0.002068916
FINAL SINGLE POINT ENERGY      -231.461964773029
Dispersion correction           -0.000217693
FINAL SINGLE POINT ENERGY      -115.732791731167

CARTESIAN COORDINATES (ANGSTROEM)
---------------------------------
  C      5.651281   -6.607152   -7.131808
  O      4.421029   -6.172387   -6.635053
  H      3.846128   -6.941923   -6.443546
  H      6.331579   -5.736460   -7.229165
  H      6.041744   -7.382705   -6.519006
  H      5.543523   -7.079936   -8.062609
  C      3.326192   -9.299605   -6.732269
  O      2.496551  -10.299359   -6.136485
  H      2.910461  -11.128581   -6.198545
  H      4.306500   -9.333767   -6.405769
  H      3.357576   -9.239956   -7.782154
  H      2.920696   -8.347242   -6.337458

 Multiplicity           Mult            ....    1
 Number of Electrons    NEL             ....   18
 Basis Dimension        Dim             ....  172

ORBITAL ENERGIES
----------------

  NO   OCC          E(Eh)            E(eV)
   0   2.0000     -19.227294      -523.2013
   1   2.0000     -10.304326      -280.3950
   2   2.0000      -1.136572       -30.9277
   3   2.0000      -0.807852       -21.9828
   4   2.0000      -0.619359       -16.8536
   5   2.0000      -0.546295       -14.8654
   6   2.0000      -0.518687       -14.1142
   7   2.0000      -0.435962       -11.8631
   8   2.0000      -0.379012       -10.3135
   9   0.0000       0.086181         2.3451
  10   0.0000       0.121282         3.3003
  11   0.0000       0.158529         4.3138
  12   0.0000       0.169014         4.5991
  13   0.0000       0.187148         5.0926

MULLIKEN ATOMIC CHARGES
-----------------------
   0 C :    0.001677
   1 O :    0.001672
   2 H :   -0.009780
   3 H :   -0.000055
   4 H :   -0.000936
   5 H :   -0.000509
   6 C :   -0.165047
   7 O :   -0.474830
   8 H :    0.305530
   9 H :    0.106709
  10 H :    0.108738
  11 H :    0.126830
Sum of atomic charges:    0.0000000

LOEWDIN ATOMIC CHARGES
----------------------
   0 C :   -0.004598
   1 O :   -0.002045
   2 H :   -0.025622
   3 H :   -0.000031
   4 H :   -0.002074
   5 H :   -0.000578
   6 C :   -0.349121
   7 O :   -0.066573
   8 H :    0.144521
   9 H :    0.086961
  10 H :    0.088419
  11 H :    0.130741

  Mayer bond orders larger than 0.1
B(  6-C ,  7-O ) :   0.9982 B(  6-C ,  9-H ) :   0.9798 B(  6-C , 10-H ) :   0.9645
B(  6-C , 11-H ) :   0.9726 B(  7-O ,  8-H ) :   0.9087

Dispersion correction           -0.000247663
FINAL SINGLE POINT ENERGY      -115.730641917102

DIPOLE MOMENT
-------------
                                X             Y             Z
Electronic contribution:     -1.07033      -1.29781       0.66984
Nuclear contribution   :      1.70453       1.16828      -0.94380
                        -----------------------------------------
Total Dipole Moment    :      0.63421      -0.12953      -0.27397
                        -----------------------------------------
Magnitude (a.u.)       :      0.70289
Magnitude (Debye)      :      1.78660

Rotational constants in cm-1:     4.628486     0.819357     0.789749
Rotational constants in MHz : 138758.510436 24563.709798 23676.083291

                             ****ORCA TERMINATED NORMALLY****
TOTAL RUN TIME: 0 days 0 hours 6 minutes 15 seconds 675 msec
