                         Program Version 4.1.2  - RELEASE  -
|  1> #Run DFT-D3 single point of the dimer
|  2> ! wB97X-D3 def2-TZVP TIGHTSCF CHELPG PMODEL PAL8
|  3>
|  4> %base "13-142_DFT_AB"
|  5>
|  6> %scf
|  7> MaxIter 1000
|  8> end
|  9>
| 10> * xyz 0 1
| 11>   C                      -2.561850            8.333009             5.793317
| 12>   O                      -3.098374            7.684261             4.668960
| 13>   H                      -2.260752            7.229011             4.369283
| 14>   H                      -1.504505            8.534680             5.701477
| 15>   H                      -3.050513            9.317847             5.958538
| 16>   H                      -2.651462            7.682936             6.685952
| 17>   C                      0.335127             6.368528             7.383852
| 18>   O                      0.494388             7.192351             6.270742
| 19>   H                      0.338019             6.570554             5.491384
| 20>   H                      -0.092078            6.845019             8.282586
| 21>   H                      -0.326130            5.576746             7.050708
| 22>   H                      1.301061             6.010898             7.747708
| 23> *
| 24>
| 25> #Run DFT-D3 single point of the molecule with dimer basis set
| 26> $new_job
| 27> %base "13-142_DFT_A"
| 28> ! wB97X-D3 def2-TZVP TIGHTSCF CHELPG PMODEL
| 29>
| 30> %scf
| 31> MaxIter 1000
| 32> end
| 33>
| 34> * xyz 0 1
| 35>   C                      -2.561850            8.333009             5.793317
| 36>   O                      -3.098374            7.684261             4.668960
| 37>   H                      -2.260752            7.229011             4.369283
| 38>   H                      -1.504505            8.534680             5.701477
| 39>   H                      -3.050513            9.317847             5.958538
| 40>   H                      -2.651462            7.682936             6.685952
| 41>   C                    : 0.335127             6.368528             7.383852
| 42>   O                    : 0.494388             7.192351             6.270742
| 43>   H                    : 0.338019             6.570554             5.491384
| 44>   H                    : -0.092078            6.845019             8.282586
| 45>   H                    : -0.326130            5.576746             7.050708
| 46>   H                    : 1.301061             6.010898             7.747708
| 47> *
| 48>
| 49> #Run DFT-D3 single point of the particle with dimer basis set
| 50> $new_job
| 51> %base "13-142_DFT_B"
| 52> ! wB97X-D3 def2-TZVP TIGHTSCF CHELPG PMODEL
| 53>
| 54> %scf
| 55> MaxIter 1000
| 56> end
| 57>
| 58> * xyz 0 1
| 59>   C                    : -2.561850            8.333009             5.793317
| 60>   O                    : -3.098374            7.684261             4.668960
| 61>   H                    : -2.260752            7.229011             4.369283
| 62>   H                    : -1.504505            8.534680             5.701477
| 63>   H                    : -3.050513            9.317847             5.958538
| 64>   H                    : -2.651462            7.682936             6.685952
| 65>   C                      0.335127             6.368528             7.383852
| 66>   O                      0.494388             7.192351             6.270742
| 67>   H                      0.338019             6.570554             5.491384
| 68>   H                      -0.092078            6.845019             8.282586
| 69>   H                      -0.326130            5.576746             7.050708
| 70>   H                      1.301061             6.010898             7.747708
| 71> *
| 72>
| 73>                          ****END OF INPUT****
 Total Charge           Charge          ....    0
 Multiplicity           Mult            ....    1
 Number of Electrons    NEL             ....   36
Dispersion correction           -0.002081991
FINAL SINGLE POINT ENERGY      -231.459620330147
Dispersion correction           -0.000220814
FINAL SINGLE POINT ENERGY      -115.730031799252

CARTESIAN COORDINATES (ANGSTROEM)
---------------------------------
  C     -2.561850    8.333009    5.793317
  O     -3.098374    7.684261    4.668960
  H     -2.260752    7.229011    4.369283
  H     -1.504505    8.534680    5.701477
  H     -3.050513    9.317847    5.958538
  H     -2.651462    7.682936    6.685952
  C      0.335127    6.368528    7.383852
  O      0.494388    7.192351    6.270742
  H      0.338019    6.570554    5.491384
  H     -0.092078    6.845019    8.282586
  H     -0.326130    5.576746    7.050708
  H      1.301061    6.010898    7.747708

 Multiplicity           Mult            ....    1
 Number of Electrons    NEL             ....   18
 Basis Dimension        Dim             ....  172

ORBITAL ENERGIES
----------------

  NO   OCC          E(Eh)            E(eV)
   0   2.0000     -19.235112      -523.4140
   1   2.0000     -10.311351      -280.5861
   2   2.0000      -1.138092       -30.9691
   3   2.0000      -0.787934       -21.4408
   4   2.0000      -0.609074       -16.5737
   5   2.0000      -0.548101       -14.9146
   6   2.0000      -0.532911       -14.5012
   7   2.0000      -0.429763       -11.6945
   8   2.0000      -0.370340       -10.0775
   9   0.0000       0.083237         2.2650
  10   0.0000       0.125380         3.4118
  11   0.0000       0.147476         4.0130
  12   0.0000       0.177897         4.8408
  13   0.0000       0.203897         5.5483

MULLIKEN ATOMIC CHARGES
-----------------------
   0 C :   -0.004811
   1 O :    0.000870
   2 H :   -0.002529
   3 H :   -0.005659
   4 H :   -0.000689
   5 H :    0.000473
   6 C :   -0.162687
   7 O :   -0.458786
   8 H :    0.321842
   9 H :    0.111677
  10 H :    0.101208
  11 H :    0.099091
Sum of atomic charges:    0.0000000

LOEWDIN ATOMIC CHARGES
----------------------
   0 C :   -0.010504
   1 O :   -0.000074
   2 H :   -0.001661
   3 H :   -0.014035
   4 H :   -0.000136
   5 H :   -0.001026
   6 C :   -0.407297
   7 O :   -0.065818
   8 H :    0.204352
   9 H :    0.105454
  10 H :    0.096151
  11 H :    0.094593

  Mayer bond orders larger than 0.1
B(  6-C ,  7-O ) :   0.9976 B(  6-C ,  9-H ) :   0.9756 B(  6-C , 10-H ) :   0.9973
B(  6-C , 11-H ) :   0.9728 B(  7-O ,  8-H ) :   0.8924

Dispersion correction           -0.000225266
FINAL SINGLE POINT ENERGY      -115.728647985810

DIPOLE MOMENT
-------------
                                X             Y             Z
Electronic contribution:      0.24073       1.22511      -1.33588
Nuclear contribution   :     -0.39530      -1.92353       1.28813
                        -----------------------------------------
Total Dipole Moment    :     -0.15457      -0.69842      -0.04775
                        -----------------------------------------
Magnitude (a.u.)       :      0.71691
Magnitude (Debye)      :      1.82224

Rotational constants in cm-1:     4.207665     0.857880     0.818657
Rotational constants in MHz : 126142.630759 25718.601015 24542.727690

                             ****ORCA TERMINATED NORMALLY****
TOTAL RUN TIME: 0 days 0 hours 1 minutes 12 seconds 382 msec
