                         Program Version 4.1.2  - RELEASE  -
|  1> #Run DFT-D3 single point of the dimer
|  2> ! wB97X-D3 def2-TZVP TIGHTSCF CHELPG PMODEL PAL8
|  3>
|  4> %base "5-143_DFT_AB"
|  5>
|  6> %scf
|  7> MaxIter 1000
|  8> end
|  9>
| 10> * xyz 0 1
| 11>   C                      0.030276             8.955928             9.883747
| 12>   O                      1.032094             8.316383             9.107599
| 13>   H                      0.648748             7.451545             8.822991
| 14>   H                      0.078628             8.686118             10.913440
| 15>   H                      0.075014             10.061676            9.899508
| 16>   H                      -1.002896            8.768820             9.483900
| 17>   C                      3.041313             8.538428             6.722435
| 18>   O                      3.735752             7.529474             6.027054
| 19>   H                      4.228261             7.048429             6.629181
| 20>   H                      1.957574             8.555811             6.443779
| 21>   H                      3.098579             8.274507             7.753945
| 22>   H                      3.526857             9.517123             6.721985
| 23> *
| 24>
| 25> #Run DFT-D3 single point of the molecule with dimer basis set
| 26> $new_job
| 27> %base "5-143_DFT_A"
| 28> ! wB97X-D3 def2-TZVP TIGHTSCF CHELPG PMODEL
| 29>
| 30> %scf
| 31> MaxIter 1000
| 32> end
| 33>
| 34> * xyz 0 1
| 35>   C                      0.030276             8.955928             9.883747
| 36>   O                      1.032094             8.316383             9.107599
| 37>   H                      0.648748             7.451545             8.822991
| 38>   H                      0.078628             8.686118             10.913440
| 39>   H                      0.075014             10.061676            9.899508
| 40>   H                      -1.002896            8.768820             9.483900
| 41>   C                    : 3.041313             8.538428             6.722435
| 42>   O                    : 3.735752             7.529474             6.027054
| 43>   H                    : 4.228261             7.048429             6.629181
| 44>   H                    : 1.957574             8.555811             6.443779
| 45>   H                    : 3.098579             8.274507             7.753945
| 46>   H                    : 3.526857             9.517123             6.721985
| 47> *
| 48>
| 49> #Run DFT-D3 single point of the particle with dimer basis set
| 50> $new_job
| 51> %base "5-143_DFT_B"
| 52> ! wB97X-D3 def2-TZVP TIGHTSCF CHELPG PMODEL
| 53>
| 54> %scf
| 55> MaxIter 1000
| 56> end
| 57>
| 58> * xyz 0 1
| 59>   C                    : 0.030276             8.955928             9.883747
| 60>   O                    : 1.032094             8.316383             9.107599
| 61>   H                    : 0.648748             7.451545             8.822991
| 62>   H                    : 0.078628             8.686118             10.913440
| 63>   H                    : 0.075014             10.061676            9.899508
| 64>   H                    : -1.002896            8.768820             9.483900
| 65>   C                      3.041313             8.538428             6.722435
| 66>   O                      3.735752             7.529474             6.027054
| 67>   H                      4.228261             7.048429             6.629181
| 68>   H                      1.957574             8.555811             6.443779
| 69>   H                      3.098579             8.274507             7.753945
| 70>   H                      3.526857             9.517123             6.721985
| 71> *
| 72>
| 73>                          ****END OF INPUT****
 Total Charge           Charge          ....    0
 Multiplicity           Mult            ....    1
 Number of Electrons    NEL             ....   36
Dispersion correction           -0.001596587
FINAL SINGLE POINT ENERGY      -231.462510053975
Dispersion correction           -0.000256077
FINAL SINGLE POINT ENERGY      -115.732471899112

CARTESIAN COORDINATES (ANGSTROEM)
---------------------------------
  C      0.030276    8.955928    9.883747
  O      1.032094    8.316383    9.107599
  H      0.648748    7.451545    8.822991
  H      0.078628    8.686118   10.913440
  H      0.075014   10.061676    9.899508
  H     -1.002896    8.768820    9.483900
  C      3.041313    8.538428    6.722435
  O      3.735752    7.529474    6.027054
  H      4.228261    7.048429    6.629181
  H      1.957574    8.555811    6.443779
  H      3.098579    8.274507    7.753945
  H      3.526857    9.517123    6.721985

 Multiplicity           Mult            ....    1
 Number of Electrons    NEL             ....   18
 Basis Dimension        Dim             ....  172

ORBITAL ENERGIES
----------------

  NO   OCC          E(Eh)            E(eV)
   0   2.0000     -19.224667      -523.1298
   1   2.0000     -10.312848      -280.6268
   2   2.0000      -1.147278       -31.2190
   3   2.0000      -0.799681       -21.7604
   4   2.0000      -0.622233       -16.9318
   5   2.0000      -0.544317       -14.8116
   6   2.0000      -0.528321       -14.3763
   7   2.0000      -0.428858       -11.6698
   8   2.0000      -0.376433       -10.2433
   9   0.0000       0.082138         2.2351
  10   0.0000       0.116964         3.1828
  11   0.0000       0.150698         4.1007
  12   0.0000       0.172953         4.7063
  13   0.0000       0.182210         4.9582

MULLIKEN ATOMIC CHARGES
-----------------------
   0 C :   -0.001286
   1 O :   -0.002520
   2 H :    0.000346
   3 H :    0.000055
   4 H :   -0.000006
   5 H :    0.000014
   6 C :   -0.156385
   7 O :   -0.463388
   8 H :    0.307557
   9 H :    0.112345
  10 H :    0.102357
  11 H :    0.100911
Sum of atomic charges:    0.0000000

LOEWDIN ATOMIC CHARGES
----------------------
   0 C :   -0.000896
   1 O :   -0.009812
   2 H :   -0.001885
   3 H :   -0.000022
   4 H :   -0.000033
   5 H :   -0.000024
   6 C :   -0.380439
   7 O :   -0.050222
   8 H :    0.138908
   9 H :    0.111931
  10 H :    0.095349
  11 H :    0.097145

  Mayer bond orders larger than 0.1
B(  6-C ,  7-O ) :   1.0094 B(  6-C ,  9-H ) :   0.9721 B(  6-C , 10-H ) :   0.9971
B(  6-C , 11-H ) :   0.9617 B(  7-O ,  8-H ) :   0.9120

Dispersion correction           -0.000235151
FINAL SINGLE POINT ENERGY      -115.729096233545

DIPOLE MOMENT
-------------
                                X             Y             Z
Electronic contribution:      0.82827      -1.20151      -1.12129
Nuclear contribution   :     -0.76657       1.26191       1.83812
                        -----------------------------------------
Total Dipole Moment    :      0.06170       0.06040       0.71683
                        -----------------------------------------
Magnitude (a.u.)       :      0.72201
Magnitude (Debye)      :      1.83521

Rotational constants in cm-1:     4.401728     0.836712     0.812358
Rotational constants in MHz : 131960.478997 25083.980932 24353.873595

                             ****ORCA TERMINATED NORMALLY****
TOTAL RUN TIME: 0 days 0 hours 1 minutes 2 seconds 96 msec
