                         Program Version 4.1.2  - RELEASE  -
|  1> #Run DFT-D3 single point of the dimer
|  2> ! wB97X-D3 def2-TZVP TIGHTSCF CHELPG PMODEL PAL8
|  3>
|  4> %base "3-97_DFT_AB"
|  5>
|  6> %scf
|  7> MaxIter 1000
|  8> end
|  9>
| 10> * xyz 0 1
| 11>   C                      8.643484             -10.596535           3.469221
| 12>   O                      8.955716             -10.854942           2.119081
| 13>   H                      9.117032             -9.999848            1.707795
| 14>   H                      9.382769             -10.096657           4.085668
| 15>   H                      7.796566             -9.991265            3.549302
| 16>   H                      8.301989             -11.458165           3.995973
| 17>   C                      4.978477             -7.118794            3.916645
| 18>   O                      4.984561             -7.466388            2.525006
| 19>   H                      5.848563             -7.335834            2.174196
| 20>   H                      5.878072             -6.457590            4.097344
| 21>   H                      4.032489             -6.654330            4.295628
| 22>   H                      5.093336             -8.044769            4.556750
| 23> *
| 24>
| 25> #Run DFT-D3 single point of the molecule with dimer basis set
| 26> $new_job
| 27> %base "3-97_DFT_A"
| 28> ! wB97X-D3 def2-TZVP TIGHTSCF CHELPG PMODEL
| 29>
| 30> %scf
| 31> MaxIter 1000
| 32> end
| 33>
| 34> * xyz 0 1
| 35>   C                      8.643484             -10.596535           3.469221
| 36>   O                      8.955716             -10.854942           2.119081
| 37>   H                      9.117032             -9.999848            1.707795
| 38>   H                      9.382769             -10.096657           4.085668
| 39>   H                      7.796566             -9.991265            3.549302
| 40>   H                      8.301989             -11.458165           3.995973
| 41>   C                    : 4.978477             -7.118794            3.916645
| 42>   O                    : 4.984561             -7.466388            2.525006
| 43>   H                    : 5.848563             -7.335834            2.174196
| 44>   H                    : 5.878072             -6.457590            4.097344
| 45>   H                    : 4.032489             -6.654330            4.295628
| 46>   H                    : 5.093336             -8.044769            4.556750
| 47> *
| 48>
| 49> #Run DFT-D3 single point of the particle with dimer basis set
| 50> $new_job
| 51> %base "3-97_DFT_B"
| 52> ! wB97X-D3 def2-TZVP TIGHTSCF CHELPG PMODEL
| 53>
| 54> %scf
| 55> MaxIter 1000
| 56> end
| 57>
| 58> * xyz 0 1
| 59>   C                    : 8.643484             -10.596535           3.469221
| 60>   O                    : 8.955716             -10.854942           2.119081
| 61>   H                    : 9.117032             -9.999848            1.707795
| 62>   H                    : 9.382769             -10.096657           4.085668
| 63>   H                    : 7.796566             -9.991265            3.549302
| 64>   H                    : 8.301989             -11.458165           3.995973
| 65>   C                      4.978477             -7.118794            3.916645
| 66>   O                      4.984561             -7.466388            2.525006
| 67>   H                      5.848563             -7.335834            2.174196
| 68>   H                      5.878072             -6.457590            4.097344
| 69>   H                      4.032489             -6.654330            4.295628
| 70>   H                      5.093336             -8.044769            4.556750
| 71> *
| 72>
| 73>                          ****END OF INPUT****
 Total Charge           Charge          ....    0
 Multiplicity           Mult            ....    1
 Number of Electrons    NEL             ....   36
Dispersion correction           -0.000954733
FINAL SINGLE POINT ENERGY      -231.461454776752
Dispersion correction           -0.000239298
FINAL SINGLE POINT ENERGY      -115.730697749519

CARTESIAN COORDINATES (ANGSTROEM)
---------------------------------
  C      8.643484  -10.596535    3.469221
  O      8.955716  -10.854942    2.119081
  H      9.117032   -9.999848    1.707795
  H      9.382769  -10.096657    4.085668
  H      7.796566   -9.991265    3.549302
  H      8.301989  -11.458165    3.995973
  C      4.978477   -7.118794    3.916645
  O      4.984561   -7.466388    2.525006
  H      5.848563   -7.335834    2.174196
  H      5.878072   -6.457590    4.097344
  H      4.032489   -6.654330    4.295628
  H      5.093336   -8.044769    4.556750

 Multiplicity           Mult            ....    1
 Number of Electrons    NEL             ....   18
 Basis Dimension        Dim             ....  172

ORBITAL ENERGIES
----------------

  NO   OCC          E(Eh)            E(eV)
   0   2.0000     -19.228701      -523.2396
   1   2.0000     -10.327429      -281.0236
   2   2.0000      -1.133919       -30.8555
   3   2.0000      -0.791102       -21.5270
   4   2.0000      -0.607871       -16.5410
   5   2.0000      -0.535642       -14.5756
   6   2.0000      -0.526827       -14.3357
   7   2.0000      -0.430789       -11.7224
   8   2.0000      -0.372005       -10.1228
   9   0.0000       0.079321         2.1584
  10   0.0000       0.117693         3.2026
  11   0.0000       0.143621         3.9081
  12   0.0000       0.166873         4.5408
  13   0.0000       0.186584         5.0772

MULLIKEN ATOMIC CHARGES
-----------------------
   0 C :    0.000524
   1 O :    0.000002
   2 H :   -0.000059
   3 H :   -0.000015
   4 H :   -0.001181
   5 H :   -0.000003
   6 C :   -0.177269
   7 O :   -0.473827
   8 H :    0.315456
   9 H :    0.104936
  10 H :    0.125663
  11 H :    0.105773
Sum of atomic charges:   -0.0000000

LOEWDIN ATOMIC CHARGES
----------------------
   0 C :   -0.000171
   1 O :   -0.000009
   2 H :   -0.000022
   3 H :   -0.000004
   4 H :   -0.000517
   5 H :   -0.000002
   6 C :   -0.380719
   7 O :   -0.086802
   8 H :    0.155411
   9 H :    0.103411
  10 H :    0.108767
  11 H :    0.100657

  Mayer bond orders larger than 0.1
B(  6-C ,  7-O ) :   1.0002 B(  6-C ,  9-H ) :   0.9861 B(  6-C , 10-H ) :   0.9699
B(  6-C , 11-H ) :   0.9722 B(  7-O ,  8-H ) :   0.9022

Dispersion correction           -0.000265334
FINAL SINGLE POINT ENERGY      -115.730876361449

DIPOLE MOMENT
-------------
                                X             Y             Z
Electronic contribution:     -0.20051      -0.40094      -1.82001
Nuclear contribution   :      0.75793       0.63452       2.15252
                        -----------------------------------------
Total Dipole Moment    :      0.55742       0.23358       0.33251
                        -----------------------------------------
Magnitude (a.u.)       :      0.68981
Magnitude (Debye)      :      1.75336

Rotational constants in cm-1:     4.165780     0.805897     0.772905
Rotational constants in MHz : 124886.930838 24160.171807 23171.108599

                             ****ORCA TERMINATED NORMALLY****
TOTAL RUN TIME: 0 days 0 hours 3 minutes 23 seconds 982 msec
