                         Program Version 4.1.2  - RELEASE  -
|  1> #Run DFT-D3 single point of the dimer
|  2> ! wB97X-D3 def2-TZVP TIGHTSCF CHELPG PMODEL PAL8
|  3>
|  4> %base "18-72_DFT_AB"
|  5>
|  6> %scf
|  7> MaxIter 1000
|  8> end
|  9>
| 10> * xyz 0 1
| 11>   C                      -9.376882            2.477543             -4.713638
| 12>   O                      -8.879101            1.249759             -4.251672
| 13>   H                      -8.504587            1.328272             -3.362079
| 14>   H                      -8.510873            3.150077             -4.795730
| 15>   H                      -9.919677            2.295343             -5.655822
| 16>   H                      -10.081456           2.950234             -3.991283
| 17>   C                      -6.079436            4.146608             -2.729976
| 18>   O                      -5.389488            4.637872             -3.875073
| 19>   H                      -5.028886            3.885787             -4.348644
| 20>   H                      -6.994678            3.663562             -3.009391
| 21>   H                      -5.483287            3.360420             -2.209580
| 22>   H                      -6.265662            4.907287             -2.035100
| 23> *
| 24>
| 25> #Run DFT-D3 single point of the molecule with dimer basis set
| 26> $new_job
| 27> %base "18-72_DFT_A"
| 28> ! wB97X-D3 def2-TZVP TIGHTSCF CHELPG PMODEL
| 29>
| 30> %scf
| 31> MaxIter 1000
| 32> end
| 33>
| 34> * xyz 0 1
| 35>   C                      -9.376882            2.477543             -4.713638
| 36>   O                      -8.879101            1.249759             -4.251672
| 37>   H                      -8.504587            1.328272             -3.362079
| 38>   H                      -8.510873            3.150077             -4.795730
| 39>   H                      -9.919677            2.295343             -5.655822
| 40>   H                      -10.081456           2.950234             -3.991283
| 41>   C                    : -6.079436            4.146608             -2.729976
| 42>   O                    : -5.389488            4.637872             -3.875073
| 43>   H                    : -5.028886            3.885787             -4.348644
| 44>   H                    : -6.994678            3.663562             -3.009391
| 45>   H                    : -5.483287            3.360420             -2.209580
| 46>   H                    : -6.265662            4.907287             -2.035100
| 47> *
| 48>
| 49> #Run DFT-D3 single point of the particle with dimer basis set
| 50> $new_job
| 51> %base "18-72_DFT_B"
| 52> ! wB97X-D3 def2-TZVP TIGHTSCF CHELPG PMODEL
| 53>
| 54> %scf
| 55> MaxIter 1000
| 56> end
| 57>
| 58> * xyz 0 1
| 59>   C                    : -9.376882            2.477543             -4.713638
| 60>   O                    : -8.879101            1.249759             -4.251672
| 61>   H                    : -8.504587            1.328272             -3.362079
| 62>   H                    : -8.510873            3.150077             -4.795730
| 63>   H                    : -9.919677            2.295343             -5.655822
| 64>   H                    : -10.081456           2.950234             -3.991283
| 65>   C                      -6.079436            4.146608             -2.729976
| 66>   O                      -5.389488            4.637872             -3.875073
| 67>   H                      -5.028886            3.885787             -4.348644
| 68>   H                      -6.994678            3.663562             -3.009391
| 69>   H                      -5.483287            3.360420             -2.209580
| 70>   H                      -6.265662            4.907287             -2.035100
| 71> *
| 72>
| 73>                          ****END OF INPUT****
 Total Charge           Charge          ....    0
 Multiplicity           Mult            ....    1
 Number of Electrons    NEL             ....   36
Dispersion correction           -0.001516994
FINAL SINGLE POINT ENERGY      -231.470533356653
Dispersion correction           -0.000233081
FINAL SINGLE POINT ENERGY      -115.734888258583

CARTESIAN COORDINATES (ANGSTROEM)
---------------------------------
  C     -9.376882    2.477543   -4.713638
  O     -8.879101    1.249759   -4.251672
  H     -8.504587    1.328272   -3.362079
  H     -8.510873    3.150077   -4.795730
  H     -9.919677    2.295343   -5.655822
  H    -10.081456    2.950234   -3.991283
  C     -6.079436    4.146608   -2.729976
  O     -5.389488    4.637872   -3.875073
  H     -5.028886    3.885787   -4.348644
  H     -6.994678    3.663562   -3.009391
  H     -5.483287    3.360420   -2.209580
  H     -6.265662    4.907287   -2.035100

 Multiplicity           Mult            ....    1
 Number of Electrons    NEL             ....   18
 Basis Dimension        Dim             ....  172

ORBITAL ENERGIES
----------------

  NO   OCC          E(Eh)            E(eV)
   0   2.0000     -19.229406      -523.2588
   1   2.0000     -10.309063      -280.5239
   2   2.0000      -1.132816       -30.8255
   3   2.0000      -0.800597       -21.7853
   4   2.0000      -0.609724       -16.5914
   5   2.0000      -0.542363       -14.7584
   6   2.0000      -0.530438       -14.4339
   7   2.0000      -0.436709       -11.8834
   8   2.0000      -0.372920       -10.1477
   9   0.0000       0.083477         2.2715
  10   0.0000       0.120753         3.2858
  11   0.0000       0.150612         4.0984
  12   0.0000       0.171051         4.6545
  13   0.0000       0.191320         5.2061

MULLIKEN ATOMIC CHARGES
-----------------------
   0 C :   -0.002935
   1 O :   -0.000062
   2 H :   -0.000241
   3 H :    0.004431
   4 H :    0.000195
   5 H :   -0.000090
   6 C :   -0.161960
   7 O :   -0.480441
   8 H :    0.315782
   9 H :    0.097027
  10 H :    0.101531
  11 H :    0.126763
Sum of atomic charges:    0.0000000

LOEWDIN ATOMIC CHARGES
----------------------
   0 C :   -0.003590
   1 O :   -0.000180
   2 H :   -0.001324
   3 H :   -0.002545
   4 H :   -0.000027
   5 H :   -0.000191
   6 C :   -0.366742
   7 O :   -0.083719
   8 H :    0.167964
   9 H :    0.092421
  10 H :    0.100240
  11 H :    0.097694

  Mayer bond orders larger than 0.1
B(  6-C ,  7-O ) :   0.9959 B(  6-C ,  9-H ) :   0.9727 B(  6-C , 10-H ) :   0.9874
B(  6-C , 11-H ) :   0.9737 B(  7-O ,  8-H ) :   0.8997

Dispersion correction           -0.000235004
FINAL SINGLE POINT ENERGY      -115.734789050226

DIPOLE MOMENT
-------------
                                X             Y             Z
Electronic contribution:      0.79085       0.87908      -1.40603
Nuclear contribution   :     -0.84080      -1.54750       1.57751
                        -----------------------------------------
Total Dipole Moment    :     -0.04995      -0.66843       0.17148
                        -----------------------------------------
Magnitude (a.u.)       :      0.69188
Magnitude (Debye)      :      1.75861

Rotational constants in cm-1:     4.407738     0.824062     0.793611
Rotational constants in MHz : 132140.659984 24704.754563 23791.865142

                             ****ORCA TERMINATED NORMALLY****
TOTAL RUN TIME: 0 days 0 hours 1 minutes 2 seconds 707 msec
