                         Program Version 4.1.2  - RELEASE  -
|  1> #Run DFT-D3 single point of the dimer
|  2> ! wB97X-D3 def2-TZVP TIGHTSCF CHELPG PMODEL PAL8
|  3>
|  4> %base "11-141_DFT_AB"
|  5>
|  6> %scf
|  7> MaxIter 1000
|  8> end
|  9>
| 10> * xyz 0 1
| 11>   C                      3.963104             -1.894302            -6.831238
| 12>   O                      4.841024             -1.628224            -5.724773
| 13>   H                      5.315042             -2.462843            -5.462940
| 14>   H                      3.675892             -0.939994            -7.360445
| 15>   H                      4.399781             -2.566132            -7.606293
| 16>   H                      3.045565             -2.437522            -6.505905
| 17>   C                      3.035354             -3.809666            -2.544556
| 18>   O                      1.766696             -4.109608            -3.176374
| 19>   H                      1.607045             -3.612000            -3.997328
| 20>   H                      3.106638             -4.114295            -1.499011
| 21>   H                      3.808947             -4.262466            -3.092819
| 22>   H                      3.163127             -2.658329            -2.601287
| 23> *
| 24>
| 25> #Run DFT-D3 single point of the molecule with dimer basis set
| 26> $new_job
| 27> %base "11-141_DFT_A"
| 28> ! wB97X-D3 def2-TZVP TIGHTSCF CHELPG PMODEL
| 29>
| 30> %scf
| 31> MaxIter 1000
| 32> end
| 33>
| 34> * xyz 0 1
| 35>   C                      3.963104             -1.894302            -6.831238
| 36>   O                      4.841024             -1.628224            -5.724773
| 37>   H                      5.315042             -2.462843            -5.462940
| 38>   H                      3.675892             -0.939994            -7.360445
| 39>   H                      4.399781             -2.566132            -7.606293
| 40>   H                      3.045565             -2.437522            -6.505905
| 41>   C                    : 3.035354             -3.809666            -2.544556
| 42>   O                    : 1.766696             -4.109608            -3.176374
| 43>   H                    : 1.607045             -3.612000            -3.997328
| 44>   H                    : 3.106638             -4.114295            -1.499011
| 45>   H                    : 3.808947             -4.262466            -3.092819
| 46>   H                    : 3.163127             -2.658329            -2.601287
| 47> *
| 48>
| 49> #Run DFT-D3 single point of the particle with dimer basis set
| 50> $new_job
| 51> %base "11-141_DFT_B"
| 52> ! wB97X-D3 def2-TZVP TIGHTSCF CHELPG PMODEL
| 53>
| 54> %scf
| 55> MaxIter 1000
| 56> end
| 57>
| 58> * xyz 0 1
| 59>   C                    : 3.963104             -1.894302            -6.831238
| 60>   O                    : 4.841024             -1.628224            -5.724773
| 61>   H                    : 5.315042             -2.462843            -5.462940
| 62>   H                    : 3.675892             -0.939994            -7.360445
| 63>   H                    : 4.399781             -2.566132            -7.606293
| 64>   H                    : 3.045565             -2.437522            -6.505905
| 65>   C                      3.035354             -3.809666            -2.544556
| 66>   O                      1.766696             -4.109608            -3.176374
| 67>   H                      1.607045             -3.612000            -3.997328
| 68>   H                      3.106638             -4.114295            -1.499011
| 69>   H                      3.808947             -4.262466            -3.092819
| 70>   H                      3.163127             -2.658329            -2.601287
| 71> *
| 72>
| 73>                          ****END OF INPUT****
 Total Charge           Charge          ....    0
 Multiplicity           Mult            ....    1
 Number of Electrons    NEL             ....   36
Dispersion correction           -0.001340231
FINAL SINGLE POINT ENERGY      -231.462938712929
Dispersion correction           -0.000276692
FINAL SINGLE POINT ENERGY      -115.733109385669

CARTESIAN COORDINATES (ANGSTROEM)
---------------------------------
  C      3.963104   -1.894302   -6.831238
  O      4.841024   -1.628224   -5.724773
  H      5.315042   -2.462843   -5.462940
  H      3.675892   -0.939994   -7.360445
  H      4.399781   -2.566132   -7.606293
  H      3.045565   -2.437522   -6.505905
  C      3.035354   -3.809666   -2.544556
  O      1.766696   -4.109608   -3.176374
  H      1.607045   -3.612000   -3.997328
  H      3.106638   -4.114295   -1.499011
  H      3.808947   -4.262466   -3.092819
  H      3.163127   -2.658329   -2.601287

 Multiplicity           Mult            ....    1
 Number of Electrons    NEL             ....   18
 Basis Dimension        Dim             ....  172

ORBITAL ENERGIES
----------------

  NO   OCC          E(Eh)            E(eV)
   0   2.0000     -19.225874      -523.1626
   1   2.0000     -10.319481      -280.8074
   2   2.0000      -1.118184       -30.4273
   3   2.0000      -0.796686       -21.6789
   4   2.0000      -0.599479       -16.3127
   5   2.0000      -0.540553       -14.7092
   6   2.0000      -0.529471       -14.4076
   7   2.0000      -0.421858       -11.4793
   8   2.0000      -0.371351       -10.1050
   9   0.0000       0.071827         1.9545
  10   0.0000       0.119785         3.2595
  11   0.0000       0.138272         3.7626
  12   0.0000       0.172872         4.7041
  13   0.0000       0.184340         5.0161

MULLIKEN ATOMIC CHARGES
-----------------------
   0 C :    0.000713
   1 O :    0.000071
   2 H :   -0.000362
   3 H :   -0.000030
   4 H :   -0.000025
   5 H :   -0.001620
   6 C :   -0.157592
   7 O :   -0.501820
   8 H :    0.320888
   9 H :    0.128441
  10 H :    0.112833
  11 H :    0.098502
Sum of atomic charges:    0.0000000

LOEWDIN ATOMIC CHARGES
----------------------
   0 C :   -0.000241
   1 O :   -0.000133
   2 H :   -0.000405
   3 H :   -0.000003
   4 H :   -0.000002
   5 H :   -0.000830
   6 C :   -0.354226
   7 O :   -0.117042
   8 H :    0.172079
   9 H :    0.107822
  10 H :    0.085397
  11 H :    0.107583

  Mayer bond orders larger than 0.1
B(  6-C ,  7-O ) :   0.9824 B(  6-C ,  9-H ) :   0.9676 B(  6-C , 10-H ) :   0.9742
B(  6-C , 11-H ) :   0.9863 B(  7-O ,  8-H ) :   0.8924

Dispersion correction           -0.000258950
FINAL SINGLE POINT ENERGY      -115.728826480929

DIPOLE MOMENT
-------------
                                X             Y             Z
Electronic contribution:     -1.53949      -0.61383      -0.60259
Nuclear contribution   :      1.99430       1.04469       0.34953
                        -----------------------------------------
Total Dipole Moment    :      0.45481       0.43086      -0.25305
                        -----------------------------------------
Magnitude (a.u.)       :      0.67567
Magnitude (Debye)      :      1.71742

Rotational constants in cm-1:     4.274172     0.793769     0.765159
Rotational constants in MHz : 128136.465526 23796.603506 22938.884572

                             ****ORCA TERMINATED NORMALLY****
TOTAL RUN TIME: 0 days 0 hours 1 minutes 10 seconds 969 msec
