                         Program Version 4.1.2  - RELEASE  -
|  1> #Run DFT-D3 single point of the dimer
|  2> ! wB97X-D3 def2-TZVP TIGHTSCF CHELPG PMODEL PAL8
|  3>
|  4> %base "17-186_DFT_AB"
|  5>
|  6> %scf
|  7> MaxIter 1000
|  8> end
|  9>
| 10> * xyz 0 1
| 11>   C                      2.138114             7.553743             -3.607472
| 12>   O                      2.033165             8.634707             -2.745587
| 13>   H                      1.551235             9.341516             -3.242946
| 14>   H                      2.661205             6.794591             -3.034214
| 15>   H                      1.144059             7.065508             -3.824194
| 16>   H                      2.753719             7.638786             -4.459255
| 17>   C                      5.054067             9.348535             -0.828592
| 18>   O                      4.545536             8.325056             -1.653997
| 19>   H                      3.968894             8.749369             -2.261235
| 20>   H                      5.746335             10.032893            -1.249748
| 21>   H                      4.274785             9.977519             -0.417629
| 22>   H                      5.502303             8.937228             0.087783
| 23> *
| 24>
| 25> #Run DFT-D3 single point of the molecule with dimer basis set
| 26> $new_job
| 27> %base "17-186_DFT_A"
| 28> ! wB97X-D3 def2-TZVP TIGHTSCF CHELPG PMODEL
| 29>
| 30> %scf
| 31> MaxIter 1000
| 32> end
| 33>
| 34> * xyz 0 1
| 35>   C                      2.138114             7.553743             -3.607472
| 36>   O                      2.033165             8.634707             -2.745587
| 37>   H                      1.551235             9.341516             -3.242946
| 38>   H                      2.661205             6.794591             -3.034214
| 39>   H                      1.144059             7.065508             -3.824194
| 40>   H                      2.753719             7.638786             -4.459255
| 41>   C                    : 5.054067             9.348535             -0.828592
| 42>   O                    : 4.545536             8.325056             -1.653997
| 43>   H                    : 3.968894             8.749369             -2.261235
| 44>   H                    : 5.746335             10.032893            -1.249748
| 45>   H                    : 4.274785             9.977519             -0.417629
| 46>   H                    : 5.502303             8.937228             0.087783
| 47> *
| 48>
| 49> #Run DFT-D3 single point of the particle with dimer basis set
| 50> $new_job
| 51> %base "17-186_DFT_B"
| 52> ! wB97X-D3 def2-TZVP TIGHTSCF CHELPG PMODEL
| 53>
| 54> %scf
| 55> MaxIter 1000
| 56> end
| 57>
| 58> * xyz 0 1
| 59>   C                    : 2.138114             7.553743             -3.607472
| 60>   O                    : 2.033165             8.634707             -2.745587
| 61>   H                    : 1.551235             9.341516             -3.242946
| 62>   H                    : 2.661205             6.794591             -3.034214
| 63>   H                    : 1.144059             7.065508             -3.824194
| 64>   H                    : 2.753719             7.638786             -4.459255
| 65>   C                      5.054067             9.348535             -0.828592
| 66>   O                      4.545536             8.325056             -1.653997
| 67>   H                      3.968894             8.749369             -2.261235
| 68>   H                      5.746335             10.032893            -1.249748
| 69>   H                      4.274785             9.977519             -0.417629
| 70>   H                      5.502303             8.937228             0.087783
| 71> *
| 72>
| 73>                          ****END OF INPUT****
 Total Charge           Charge          ....    0
 Multiplicity           Mult            ....    1
 Number of Electrons    NEL             ....   36
Dispersion correction           -0.001784678
FINAL SINGLE POINT ENERGY      -231.469236718563
Dispersion correction           -0.000245636
FINAL SINGLE POINT ENERGY      -115.731153299398

CARTESIAN COORDINATES (ANGSTROEM)
---------------------------------
  C      2.138114    7.553743   -3.607472
  O      2.033165    8.634707   -2.745587
  H      1.551235    9.341516   -3.242946
  H      2.661205    6.794591   -3.034214
  H      1.144059    7.065508   -3.824194
  H      2.753719    7.638786   -4.459255
  C      5.054067    9.348535   -0.828592
  O      4.545536    8.325056   -1.653997
  H      3.968894    8.749369   -2.261235
  H      5.746335   10.032893   -1.249748
  H      4.274785    9.977519   -0.417629
  H      5.502303    8.937228    0.087783

 Multiplicity           Mult            ....    1
 Number of Electrons    NEL             ....   18
 Basis Dimension        Dim             ....  172

ORBITAL ENERGIES
----------------

  NO   OCC          E(Eh)            E(eV)
   0   2.0000     -19.233782      -523.3778
   1   2.0000     -10.308885      -280.5190
   2   2.0000      -1.145324       -31.1659
   3   2.0000      -0.802531       -21.8380
   4   2.0000      -0.619895       -16.8682
   5   2.0000      -0.543636       -14.7931
   6   2.0000      -0.527341       -14.3497
   7   2.0000      -0.437010       -11.8917
   8   2.0000      -0.378752       -10.3064
   9   0.0000       0.076899         2.0925
  10   0.0000       0.131979         3.5913
  11   0.0000       0.159862         4.3501
  12   0.0000       0.169773         4.6197
  13   0.0000       0.194919         5.3040

MULLIKEN ATOMIC CHARGES
-----------------------
   0 C :    0.000050
   1 O :   -0.005866
   2 H :   -0.000318
   3 H :   -0.003367
   4 H :    0.000116
   5 H :   -0.000333
   6 C :   -0.180169
   7 O :   -0.448788
   8 H :    0.309932
   9 H :    0.108992
  10 H :    0.102244
  11 H :    0.117507
Sum of atomic charges:   -0.0000000

LOEWDIN ATOMIC CHARGES
----------------------
   0 C :   -0.011143
   1 O :   -0.018653
   2 H :   -0.000937
   3 H :   -0.003810
   4 H :   -0.000092
   5 H :   -0.000596
   6 C :   -0.388510
   7 O :   -0.037411
   8 H :    0.167647
   9 H :    0.087628
  10 H :    0.094277
  11 H :    0.111601

  Mayer bond orders larger than 0.1
B(  6-C ,  7-O ) :   1.0039 B(  6-C ,  9-H ) :   0.9731 B(  6-C , 10-H ) :   0.9800
B(  6-C , 11-H ) :   0.9760 B(  7-O ,  8-H ) :   0.9073

Dispersion correction           -0.000241732
FINAL SINGLE POINT ENERGY      -115.733657131198

DIPOLE MOMENT
-------------
                                X             Y             Z
Electronic contribution:     -0.52248      -1.47770      -1.14535
Nuclear contribution   :      0.35572       2.15844       1.10900
                        -----------------------------------------
Total Dipole Moment    :     -0.16676       0.68074      -0.03635
                        -----------------------------------------
Magnitude (a.u.)       :      0.70181
Magnitude (Debye)      :      1.78386

Rotational constants in cm-1:     4.558261     0.829686     0.799697
Rotational constants in MHz : 136653.217777 24873.347928 23974.316279

                             ****ORCA TERMINATED NORMALLY****
TOTAL RUN TIME: 0 days 0 hours 1 minutes 14 seconds 73 msec
