                         Program Version 4.1.2  - RELEASE  -
|  1> #Run DFT-D3 single point of the dimer
|  2> ! wB97X-D3 def2-TZVP TIGHTSCF CHELPG PMODEL PAL8
|  3>
|  4> %base "4-22_DFT_AB"
|  5>
|  6> %scf
|  7> MaxIter 1000
|  8> end
|  9>
| 10> * xyz 0 1
| 11>   C                      1.278964             -10.654822           2.337766
| 12>   O                      1.975469             -10.763566           3.561013
| 13>   H                      2.763265             -11.256909           3.348373
| 14>   H                      0.900062             -11.560758           2.008515
| 15>   H                      0.551293             -9.905268            2.334664
| 16>   H                      2.032881             -10.389157           1.510708
| 17>   C                      -2.609944            -10.256351           5.190139
| 18>   O                      -3.201043            -9.012734            5.520991
| 19>   H                      -2.466992            -8.398140            5.750252
| 20>   H                      -1.706932            -10.289172           4.551966
| 21>   H                      -2.154489            -10.747603           6.055708
| 22>   H                      -3.321571            -10.948239           4.723527
| 23> *
| 24>
| 25> #Run DFT-D3 single point of the molecule with dimer basis set
| 26> $new_job
| 27> %base "4-22_DFT_A"
| 28> ! wB97X-D3 def2-TZVP TIGHTSCF CHELPG PMODEL
| 29>
| 30> %scf
| 31> MaxIter 1000
| 32> end
| 33>
| 34> * xyz 0 1
| 35>   C                      1.278964             -10.654822           2.337766
| 36>   O                      1.975469             -10.763566           3.561013
| 37>   H                      2.763265             -11.256909           3.348373
| 38>   H                      0.900062             -11.560758           2.008515
| 39>   H                      0.551293             -9.905268            2.334664
| 40>   H                      2.032881             -10.389157           1.510708
| 41>   C                    : -2.609944            -10.256351           5.190139
| 42>   O                    : -3.201043            -9.012734            5.520991
| 43>   H                    : -2.466992            -8.398140            5.750252
| 44>   H                    : -1.706932            -10.289172           4.551966
| 45>   H                    : -2.154489            -10.747603           6.055708
| 46>   H                    : -3.321571            -10.948239           4.723527
| 47> *
| 48>
| 49> #Run DFT-D3 single point of the particle with dimer basis set
| 50> $new_job
| 51> %base "4-22_DFT_B"
| 52> ! wB97X-D3 def2-TZVP TIGHTSCF CHELPG PMODEL
| 53>
| 54> %scf
| 55> MaxIter 1000
| 56> end
| 57>
| 58> * xyz 0 1
| 59>   C                    : 1.278964             -10.654822           2.337766
| 60>   O                    : 1.975469             -10.763566           3.561013
| 61>   H                    : 2.763265             -11.256909           3.348373
| 62>   H                    : 0.900062             -11.560758           2.008515
| 63>   H                    : 0.551293             -9.905268            2.334664
| 64>   H                    : 2.032881             -10.389157           1.510708
| 65>   C                      -2.609944            -10.256351           5.190139
| 66>   O                      -3.201043            -9.012734            5.520991
| 67>   H                      -2.466992            -8.398140            5.750252
| 68>   H                      -1.706932            -10.289172           4.551966
| 69>   H                      -2.154489            -10.747603           6.055708
| 70>   H                      -3.321571            -10.948239           4.723527
| 71> *
| 72>
| 73>                          ****END OF INPUT****
 Total Charge           Charge          ....    0
 Multiplicity           Mult            ....    1
 Number of Electrons    NEL             ....   36
Dispersion correction           -0.000923900
FINAL SINGLE POINT ENERGY      -231.460830505617
Dispersion correction           -0.000217317
FINAL SINGLE POINT ENERGY      -115.729214147053

CARTESIAN COORDINATES (ANGSTROEM)
---------------------------------
  C      1.278964  -10.654822    2.337766
  O      1.975469  -10.763566    3.561013
  H      2.763265  -11.256909    3.348373
  H      0.900062  -11.560758    2.008515
  H      0.551293   -9.905268    2.334664
  H      2.032881  -10.389157    1.510708
  C     -2.609944  -10.256351    5.190139
  O     -3.201043   -9.012734    5.520991
  H     -2.466992   -8.398140    5.750252
  H     -1.706932  -10.289172    4.551966
  H     -2.154489  -10.747603    6.055708
  H     -3.321571  -10.948239    4.723527

 Multiplicity           Mult            ....    1
 Number of Electrons    NEL             ....   18
 Basis Dimension        Dim             ....  172

ORBITAL ENERGIES
----------------

  NO   OCC          E(Eh)            E(eV)
   0   2.0000     -19.238654      -523.5104
   1   2.0000     -10.314781      -280.6794
   2   2.0000      -1.134259       -30.8647
   3   2.0000      -0.795728       -21.6529
   4   2.0000      -0.616497       -16.7757
   5   2.0000      -0.533583       -14.5195
   6   2.0000      -0.519543       -14.1375
   7   2.0000      -0.442454       -12.0398
   8   2.0000      -0.371108       -10.0984
   9   0.0000       0.080063         2.1786
  10   0.0000       0.113607         3.0914
  11   0.0000       0.145710         3.9650
  12   0.0000       0.164602         4.4791
  13   0.0000       0.182730         4.9723

MULLIKEN ATOMIC CHARGES
-----------------------
   0 C :   -0.000172
   1 O :   -0.000014
   2 H :   -0.000005
   3 H :   -0.000087
   4 H :    0.000215
   5 H :    0.000008
   6 C :   -0.178853
   7 O :   -0.466006
   8 H :    0.318286
   9 H :    0.101255
  10 H :    0.099872
  11 H :    0.125503
Sum of atomic charges:    0.0000000

LOEWDIN ATOMIC CHARGES
----------------------
   0 C :   -0.001232
   1 O :   -0.000034
   2 H :   -0.000004
   3 H :   -0.000057
   4 H :   -0.000619
   5 H :   -0.000015
   6 C :   -0.401791
   7 O :   -0.082325
   8 H :    0.186174
   9 H :    0.096340
  10 H :    0.093715
  11 H :    0.109848

  Mayer bond orders larger than 0.1
B(  6-C ,  7-O ) :   1.0053 B(  6-C ,  9-H ) :   0.9680 B(  6-C , 10-H ) :   0.9758
B(  6-C , 11-H ) :   0.9739 B(  7-O ,  8-H ) :   0.8941

Dispersion correction           -0.000265526
FINAL SINGLE POINT ENERGY      -115.730559324179

DIPOLE MOMENT
-------------
                                X             Y             Z
Electronic contribution:     -1.05303       1.69818       0.36799
Nuclear contribution   :      1.75057      -1.79463      -0.35447
                        -----------------------------------------
Total Dipole Moment    :      0.69754      -0.09645       0.01352
                        -----------------------------------------
Magnitude (a.u.)       :      0.70430
Magnitude (Debye)      :      1.79020

Rotational constants in cm-1:     4.418095     0.818244     0.776877
Rotational constants in MHz : 132451.165838 24530.336380 23290.201378

                             ****ORCA TERMINATED NORMALLY****
TOTAL RUN TIME: 0 days 0 hours 1 minutes 32 seconds 706 msec
