                         Program Version 4.1.2  - RELEASE  -
|  1> #Run DFT-D3 single point of the dimer
|  2> ! wB97X-D3 def2-TZVP TIGHTSCF CHELPG PMODEL PAL8
|  3>
|  4> %base "2-141_DFT_AB"
|  5>
|  6> %scf
|  7> MaxIter 1000
|  8> end
|  9>
| 10> * xyz 0 1
| 11>   C                      10.601128            -7.350926            8.682818
| 12>   O                      10.943655            -8.622369            9.174331
| 13>   H                      11.734545            -8.957303            8.706563
| 14>   H                      10.837440            -6.558996            9.430620
| 15>   H                      11.007022            -7.083806            7.698603
| 16>   H                      9.479515             -7.283157            8.519507
| 17>   C                      9.899135             -11.679669           8.345848
| 18>   O                      10.648408            -10.639375           7.678571
| 19>   H                      11.155896            -11.064115           7.075679
| 20>   H                      9.191127             -12.159309           7.624472
| 21>   H                      10.580960            -12.385766           8.711048
| 22>   H                      9.311659             -11.287434           9.161078
| 23> *
| 24>
| 25> #Run DFT-D3 single point of the molecule with dimer basis set
| 26> $new_job
| 27> %base "2-141_DFT_A"
| 28> ! wB97X-D3 def2-TZVP TIGHTSCF CHELPG PMODEL
| 29>
| 30> %scf
| 31> MaxIter 1000
| 32> end
| 33>
| 34> * xyz 0 1
| 35>   C                      10.601128            -7.350926            8.682818
| 36>   O                      10.943655            -8.622369            9.174331
| 37>   H                      11.734545            -8.957303            8.706563
| 38>   H                      10.837440            -6.558996            9.430620
| 39>   H                      11.007022            -7.083806            7.698603
| 40>   H                      9.479515             -7.283157            8.519507
| 41>   C                    : 9.899135             -11.679669           8.345848
| 42>   O                    : 10.648408            -10.639375           7.678571
| 43>   H                    : 11.155896            -11.064115           7.075679
| 44>   H                    : 9.191127             -12.159309           7.624472
| 45>   H                    : 10.580960            -12.385766           8.711048
| 46>   H                    : 9.311659             -11.287434           9.161078
| 47> *
| 48>
| 49> #Run DFT-D3 single point of the particle with dimer basis set
| 50> $new_job
| 51> %base "2-141_DFT_B"
| 52> ! wB97X-D3 def2-TZVP TIGHTSCF CHELPG PMODEL
| 53>
| 54> %scf
| 55> MaxIter 1000
| 56> end
| 57>
| 58> * xyz 0 1
| 59>   C                    : 10.601128            -7.350926            8.682818
| 60>   O                    : 10.943655            -8.622369            9.174331
| 61>   H                    : 11.734545            -8.957303            8.706563
| 62>   H                    : 10.837440            -6.558996            9.430620
| 63>   H                    : 11.007022            -7.083806            7.698603
| 64>   H                    : 9.479515             -7.283157            8.519507
| 65>   C                      9.899135             -11.679669           8.345848
| 66>   O                      10.648408            -10.639375           7.678571
| 67>   H                      11.155896            -11.064115           7.075679
| 68>   H                      9.191127             -12.159309           7.624472
| 69>   H                      10.580960            -12.385766           8.711048
| 70>   H                      9.311659             -11.287434           9.161078
| 71> *
| 72>
| 73>                          ****END OF INPUT****
 Total Charge           Charge          ....    0
 Multiplicity           Mult            ....    1
 Number of Electrons    NEL             ....   36
Dispersion correction           -0.001816754
FINAL SINGLE POINT ENERGY      -231.458874767666
Dispersion correction           -0.000269036
FINAL SINGLE POINT ENERGY      -115.734035646613

CARTESIAN COORDINATES (ANGSTROEM)
---------------------------------
  C     10.601128   -7.350926    8.682818
  O     10.943655   -8.622369    9.174331
  H     11.734545   -8.957303    8.706563
  H     10.837440   -6.558996    9.430620
  H     11.007022   -7.083806    7.698603
  H      9.479515   -7.283157    8.519507
  C      9.899135  -11.679669    8.345848
  O     10.648408  -10.639375    7.678571
  H     11.155896  -11.064115    7.075679
  H      9.191127  -12.159309    7.624472
  H     10.580960  -12.385766    8.711048
  H      9.311659  -11.287434    9.161078

 Multiplicity           Mult            ....    1
 Number of Electrons    NEL             ....   18
 Basis Dimension        Dim             ....  172

ORBITAL ENERGIES
----------------

  NO   OCC          E(Eh)            E(eV)
   0   2.0000     -19.222834      -523.0799
   1   2.0000     -10.312996      -280.6309
   2   2.0000      -1.142596       -31.0916
   3   2.0000      -0.804168       -21.8825
   4   2.0000      -0.610780       -16.6202
   5   2.0000      -0.545628       -14.8473
   6   2.0000      -0.530057       -14.4236
   7   2.0000      -0.440739       -11.9931
   8   2.0000      -0.376517       -10.2455
   9   0.0000       0.100971         2.7476
  10   0.0000       0.127769         3.4768
  11   0.0000       0.156197         4.2503
  12   0.0000       0.192039         5.2257
  13   0.0000       0.199034         5.4160

MULLIKEN ATOMIC CHARGES
-----------------------
   0 C :   -0.003686
   1 O :    0.010393
   2 H :   -0.013486
   3 H :   -0.000323
   4 H :   -0.000211
   5 H :   -0.000373
   6 C :   -0.169987
   7 O :   -0.458596
   8 H :    0.293200
   9 H :    0.102765
  10 H :    0.114143
  11 H :    0.126162
Sum of atomic charges:    0.0000000

LOEWDIN ATOMIC CHARGES
----------------------
   0 C :   -0.005662
   1 O :   -0.020542
   2 H :   -0.021459
   3 H :   -0.000126
   4 H :   -0.000421
   5 H :   -0.000306
   6 C :   -0.344489
   7 O :   -0.025622
   8 H :    0.120810
   9 H :    0.102841
  10 H :    0.087791
  11 H :    0.107184

  Mayer bond orders larger than 0.1
B(  6-C ,  7-O ) :   0.9775 B(  6-C ,  9-H ) :   0.9734 B(  6-C , 10-H ) :   0.9798
B(  6-C , 11-H ) :   0.9749 B(  7-O ,  8-H ) :   0.9210

Dispersion correction           -0.000224710
FINAL SINGLE POINT ENERGY      -115.729948155990

DIPOLE MOMENT
-------------
                                X             Y             Z
Electronic contribution:      0.88526       1.36113      -0.67152
Nuclear contribution   :     -0.87130      -2.08743       0.58055
                        -----------------------------------------
Total Dipole Moment    :      0.01396      -0.72630      -0.09097
                        -----------------------------------------
Magnitude (a.u.)       :      0.73211
Magnitude (Debye)      :      1.86087

Rotational constants in cm-1:     4.421472     0.811239     0.787850
Rotational constants in MHz : 132552.402524 24320.319492 23619.158046

                             ****ORCA TERMINATED NORMALLY****
TOTAL RUN TIME: 0 days 0 hours 6 minutes 24 seconds 312 msec
