                         Program Version 4.1.2  - RELEASE  -
|  1> #Run DFT-D3 single point of the dimer
|  2> ! wB97X-D3 def2-TZVP TIGHTSCF CHELPG PMODEL PAL8
|  3>
|  4> %base "22-153_DFT_AB"
|  5>
|  6> %scf
|  7> MaxIter 1000
|  8> end
|  9>
| 10> * xyz 0 1
| 11>   C                      7.365350             5.125921             -5.338019
| 12>   O                      8.689824             5.141311             -4.611010
| 13>   H                      9.239684             4.501322             -4.999733
| 14>   H                      7.687627             5.210151             -6.452757
| 15>   H                      6.816516             4.190270             -5.134899
| 16>   H                      6.715848             6.006609             -5.067874
| 17>   C                      10.925371            2.043176             -4.803599
| 18>   O                      9.954472             2.730684             -5.632411
| 19>   H                      9.231791             2.162595             -5.835105
| 20>   H                      10.733673            2.312400             -3.721582
| 21>   H                      10.877832            1.002632             -4.827015
| 22>   H                      11.898146            2.226696             -5.123197
| 23> *
| 24>
| 25> #Run DFT-D3 single point of the molecule with dimer basis set
| 26> $new_job
| 27> %base "22-153_DFT_A"
| 28> ! wB97X-D3 def2-TZVP TIGHTSCF CHELPG PMODEL
| 29>
| 30> %scf
| 31> MaxIter 1000
| 32> end
| 33>
| 34> * xyz 0 1
| 35>   C                      7.365350             5.125921             -5.338019
| 36>   O                      8.689824             5.141311             -4.611010
| 37>   H                      9.239684             4.501322             -4.999733
| 38>   H                      7.687627             5.210151             -6.452757
| 39>   H                      6.816516             4.190270             -5.134899
| 40>   H                      6.715848             6.006609             -5.067874
| 41>   C                    : 10.925371            2.043176             -4.803599
| 42>   O                    : 9.954472             2.730684             -5.632411
| 43>   H                    : 9.231791             2.162595             -5.835105
| 44>   H                    : 10.733673            2.312400             -3.721582
| 45>   H                    : 10.877832            1.002632             -4.827015
| 46>   H                    : 11.898146            2.226696             -5.123197
| 47> *
| 48>
| 49> #Run DFT-D3 single point of the particle with dimer basis set
| 50> $new_job
| 51> %base "22-153_DFT_B"
| 52> ! wB97X-D3 def2-TZVP TIGHTSCF CHELPG PMODEL
| 53>
| 54> %scf
| 55> MaxIter 1000
| 56> end
| 57>
| 58> * xyz 0 1
| 59>   C                    : 7.365350             5.125921             -5.338019
| 60>   O                    : 8.689824             5.141311             -4.611010
| 61>   H                    : 9.239684             4.501322             -4.999733
| 62>   H                    : 7.687627             5.210151             -6.452757
| 63>   H                    : 6.816516             4.190270             -5.134899
| 64>   H                    : 6.715848             6.006609             -5.067874
| 65>   C                      10.925371            2.043176             -4.803599
| 66>   O                      9.954472             2.730684             -5.632411
| 67>   H                      9.231791             2.162595             -5.835105
| 68>   H                      10.733673            2.312400             -3.721582
| 69>   H                      10.877832            1.002632             -4.827015
| 70>   H                      11.898146            2.226696             -5.123197
| 71> *
| 72>
| 73>                          ****END OF INPUT****
 Total Charge           Charge          ....    0
 Multiplicity           Mult            ....    1
 Number of Electrons    NEL             ....   36
Dispersion correction           -0.001826982
FINAL SINGLE POINT ENERGY      -231.461242643419
Dispersion correction           -0.000280108
FINAL SINGLE POINT ENERGY      -115.725221844673

CARTESIAN COORDINATES (ANGSTROEM)
---------------------------------
  C      7.365350    5.125921   -5.338019
  O      8.689824    5.141311   -4.611010
  H      9.239684    4.501322   -4.999733
  H      7.687627    5.210151   -6.452757
  H      6.816516    4.190270   -5.134899
  H      6.715848    6.006609   -5.067874
  C     10.925371    2.043176   -4.803599
  O      9.954472    2.730684   -5.632411
  H      9.231791    2.162595   -5.835105
  H     10.733673    2.312400   -3.721582
  H     10.877832    1.002632   -4.827015
  H     11.898146    2.226696   -5.123197

 Multiplicity           Mult            ....    1
 Number of Electrons    NEL             ....   18
 Basis Dimension        Dim             ....  172

ORBITAL ENERGIES
----------------

  NO   OCC          E(Eh)            E(eV)
   0   2.0000     -19.228466      -523.2332
   1   2.0000     -10.309679      -280.5406
   2   2.0000      -1.127861       -30.6907
   3   2.0000      -0.808147       -21.9908
   4   2.0000      -0.613731       -16.7005
   5   2.0000      -0.545687       -14.8489
   6   2.0000      -0.516396       -14.0518
   7   2.0000      -0.437288       -11.8992
   8   2.0000      -0.376760       -10.2522
   9   0.0000       0.094615         2.5746
  10   0.0000       0.129582         3.5261
  11   0.0000       0.151732         4.1288
  12   0.0000       0.181227         4.9314
  13   0.0000       0.203775         5.5450

MULLIKEN ATOMIC CHARGES
-----------------------
   0 C :   -0.002314
   1 O :   -0.002304
   2 H :   -0.002013
   3 H :   -0.000461
   4 H :   -0.001319
   5 H :   -0.000257
   6 C :   -0.172512
   7 O :   -0.479592
   8 H :    0.312796
   9 H :    0.107909
  10 H :    0.117557
  11 H :    0.122510
Sum of atomic charges:   -0.0000000

LOEWDIN ATOMIC CHARGES
----------------------
   0 C :   -0.004118
   1 O :   -0.005607
   2 H :   -0.036358
   3 H :   -0.000454
   4 H :   -0.000735
   5 H :   -0.000072
   6 C :   -0.345622
   7 O :   -0.052343
   8 H :    0.153722
   9 H :    0.109165
  10 H :    0.088106
  11 H :    0.094316

  Mayer bond orders larger than 0.1
B(  6-C ,  7-O ) :   0.9887 B(  6-C ,  9-H ) :   0.9800 B(  6-C , 10-H ) :   0.9731
B(  6-C , 11-H ) :   0.9752 B(  7-O ,  8-H ) :   0.9021

Dispersion correction           -0.000262332
FINAL SINGLE POINT ENERGY      -115.728722449117

DIPOLE MOMENT
-------------
                                X             Y             Z
Electronic contribution:     -1.06906       0.94474      -1.11617
Nuclear contribution   :      1.02515      -1.66706       1.30712
                        -----------------------------------------
Total Dipole Moment    :     -0.04391      -0.72232       0.19095
                        -----------------------------------------
Magnitude (a.u.)       :      0.74842
Magnitude (Debye)      :      1.90233

Rotational constants in cm-1:     4.540921     0.788651     0.776682
Rotational constants in MHz : 136133.388873 23643.147986 23284.333349

                             ****ORCA TERMINATED NORMALLY****
TOTAL RUN TIME: 0 days 0 hours 1 minutes 4 seconds 716 msec
