                         Program Version 4.1.2  - RELEASE  -
|  1> #Run DFT-D3 single point of the dimer
|  2> ! wB97X-D3 def2-TZVP TIGHTSCF CHELPG PMODEL PAL8
|  3>
|  4> %base "17-90_DFT_AB"
|  5>
|  6> %scf
|  7> MaxIter 1000
|  8> end
|  9>
| 10> * xyz 0 1
| 11>   C                      6.352193             4.195746             -4.190666
| 12>   O                      5.100575             4.500113             -4.616961
| 13>   H                      4.495087             4.304367             -3.860152
| 14>   H                      7.093230             4.700914             -4.815245
| 15>   H                      6.551793             4.589563             -3.174605
| 16>   H                      6.623159             3.143777             -4.209572
| 17>   C                      10.771608            5.192994             -3.288816
| 18>   O                      9.362997             5.246545             -3.623818
| 19>   H                      8.855624             5.697290             -2.908676
| 20>   H                      10.908281            4.526235             -2.414384
| 21>   H                      11.537811            4.895017             -4.018694
| 22>   H                      11.083453            6.185757             -2.910122
| 23> *
| 24>
| 25> #Run DFT-D3 single point of the molecule with dimer basis set
| 26> $new_job
| 27> %base "17-90_DFT_A"
| 28> ! wB97X-D3 def2-TZVP TIGHTSCF CHELPG PMODEL
| 29>
| 30> %scf
| 31> MaxIter 1000
| 32> end
| 33>
| 34> * xyz 0 1
| 35>   C                      6.352193             4.195746             -4.190666
| 36>   O                      5.100575             4.500113             -4.616961
| 37>   H                      4.495087             4.304367             -3.860152
| 38>   H                      7.093230             4.700914             -4.815245
| 39>   H                      6.551793             4.589563             -3.174605
| 40>   H                      6.623159             3.143777             -4.209572
| 41>   C                    : 10.771608            5.192994             -3.288816
| 42>   O                    : 9.362997             5.246545             -3.623818
| 43>   H                    : 8.855624             5.697290             -2.908676
| 44>   H                    : 10.908281            4.526235             -2.414384
| 45>   H                    : 11.537811            4.895017             -4.018694
| 46>   H                    : 11.083453            6.185757             -2.910122
| 47> *
| 48>
| 49> #Run DFT-D3 single point of the particle with dimer basis set
| 50> $new_job
| 51> %base "17-90_DFT_B"
| 52> ! wB97X-D3 def2-TZVP TIGHTSCF CHELPG PMODEL
| 53>
| 54> %scf
| 55> MaxIter 1000
| 56> end
| 57>
| 58> * xyz 0 1
| 59>   C                    : 6.352193             4.195746             -4.190666
| 60>   O                    : 5.100575             4.500113             -4.616961
| 61>   H                    : 4.495087             4.304367             -3.860152
| 62>   H                    : 7.093230             4.700914             -4.815245
| 63>   H                    : 6.551793             4.589563             -3.174605
| 64>   H                    : 6.623159             3.143777             -4.209572
| 65>   C                      10.771608            5.192994             -3.288816
| 66>   O                      9.362997             5.246545             -3.623818
| 67>   H                      8.855624             5.697290             -2.908676
| 68>   H                      10.908281            4.526235             -2.414384
| 69>   H                      11.537811            4.895017             -4.018694
| 70>   H                      11.083453            6.185757             -2.910122
| 71> *
| 72>
| 73>                          ****END OF INPUT****
 Total Charge           Charge          ....    0
 Multiplicity           Mult            ....    1
 Number of Electrons    NEL             ....   36
Dispersion correction           -0.001521564
FINAL SINGLE POINT ENERGY      -231.461593583892
Dispersion correction           -0.000226117
FINAL SINGLE POINT ENERGY      -115.733192282034

CARTESIAN COORDINATES (ANGSTROEM)
---------------------------------
  C      6.352193    4.195746   -4.190666
  O      5.100575    4.500113   -4.616961
  H      4.495087    4.304367   -3.860152
  H      7.093230    4.700914   -4.815245
  H      6.551793    4.589563   -3.174605
  H      6.623159    3.143777   -4.209572
  C     10.771608    5.192994   -3.288816
  O      9.362997    5.246545   -3.623818
  H      8.855624    5.697290   -2.908676
  H     10.908281    4.526235   -2.414384
  H     11.537811    4.895017   -4.018694
  H     11.083453    6.185757   -2.910122

 Multiplicity           Mult            ....    1
 Number of Electrons    NEL             ....   18
 Basis Dimension        Dim             ....  172

ORBITAL ENERGIES
----------------

  NO   OCC          E(Eh)            E(eV)
   0   2.0000     -19.233541      -523.3712
   1   2.0000     -10.321924      -280.8738
   2   2.0000      -1.120775       -30.4978
   3   2.0000      -0.795514       -21.6470
   4   2.0000      -0.602745       -16.4015
   5   2.0000      -0.533837       -14.5264
   6   2.0000      -0.529919       -14.4198
   7   2.0000      -0.428227       -11.6526
   8   2.0000      -0.371414       -10.1067
   9   0.0000       0.089894         2.4461
  10   0.0000       0.121328         3.3015
  11   0.0000       0.145281         3.9533
  12   0.0000       0.187694         5.1074
  13   0.0000       0.197925         5.3858

MULLIKEN ATOMIC CHARGES
-----------------------
   0 C :    0.004588
   1 O :   -0.000285
   2 H :   -0.000045
   3 H :   -0.006861
   4 H :   -0.005324
   5 H :   -0.001639
   6 C :   -0.179484
   7 O :   -0.479352
   8 H :    0.325274
   9 H :    0.105684
  10 H :    0.135396
  11 H :    0.102049
Sum of atomic charges:   -0.0000000

LOEWDIN ATOMIC CHARGES
----------------------
   0 C :   -0.011577
   1 O :   -0.000058
   2 H :   -0.000026
   3 H :   -0.007967
   4 H :   -0.002929
   5 H :   -0.000639
   6 C :   -0.368757
   7 O :   -0.101310
   8 H :    0.186912
   9 H :    0.097690
  10 H :    0.111115
  11 H :    0.097544

  Mayer bond orders larger than 0.1
B(  6-C ,  7-O ) :   0.9866 B(  6-C ,  9-H ) :   0.9773 B(  6-C , 10-H ) :   0.9666
B(  6-C , 11-H ) :   0.9817 B(  7-O ,  8-H ) :   0.8857

Dispersion correction           -0.000266666
FINAL SINGLE POINT ENERGY      -115.727400960912

DIPOLE MOMENT
-------------
                                X             Y             Z
Electronic contribution:     -1.75392      -0.06181      -0.76655
Nuclear contribution   :      2.05420       0.33638       1.36571
                        -----------------------------------------
Total Dipole Moment    :      0.30027       0.27457       0.59915
                        -----------------------------------------
Magnitude (a.u.)       :      0.72425
Magnitude (Debye)      :      1.84089

Rotational constants in cm-1:     4.372212     0.783523     0.755518
Rotational constants in MHz : 131075.608135 23489.430703 22649.870061

                             ****ORCA TERMINATED NORMALLY****
TOTAL RUN TIME: 0 days 0 hours 1 minutes 8 seconds 349 msec
