                         Program Version 4.1.2  - RELEASE  -
|  1> #Run DFT-D3 single point of the dimer
|  2> ! wB97X-D3 def2-TZVP TIGHTSCF CHELPG PMODEL PAL8
|  3>
|  4> %base "14-217_DFT_AB"
|  5>
|  6> %scf
|  7> MaxIter 1000
|  8> end
|  9>
| 10> * xyz 0 1
| 11>   C                      10.242377            -10.248014           -3.879707
| 12>   O                      9.187961             -11.052101           -4.037601
| 13>   H                      8.501068             -10.580617           -4.604402
| 14>   H                      10.923181            -10.606605           -3.093706
| 15>   H                      10.822002            -10.008953           -4.765578
| 16>   H                      9.877021             -9.244007            -3.470137
| 17>   C                      5.199033             -9.097002            -3.574988
| 18>   O                      6.451183             -8.695826            -4.091905
| 19>   H                      6.443825             -8.843585            -5.019329
| 20>   H                      5.190633             -9.018108            -2.425357
| 21>   H                      4.430538             -8.410827            -3.947022
| 22>   H                      4.918615             -10.093391           -3.951193
| 23> *
| 24>
| 25> #Run DFT-D3 single point of the molecule with dimer basis set
| 26> $new_job
| 27> %base "14-217_DFT_A"
| 28> ! wB97X-D3 def2-TZVP TIGHTSCF CHELPG PMODEL
| 29>
| 30> %scf
| 31> MaxIter 1000
| 32> end
| 33>
| 34> * xyz 0 1
| 35>   C                      10.242377            -10.248014           -3.879707
| 36>   O                      9.187961             -11.052101           -4.037601
| 37>   H                      8.501068             -10.580617           -4.604402
| 38>   H                      10.923181            -10.606605           -3.093706
| 39>   H                      10.822002            -10.008953           -4.765578
| 40>   H                      9.877021             -9.244007            -3.470137
| 41>   C                    : 5.199033             -9.097002            -3.574988
| 42>   O                    : 6.451183             -8.695826            -4.091905
| 43>   H                    : 6.443825             -8.843585            -5.019329
| 44>   H                    : 5.190633             -9.018108            -2.425357
| 45>   H                    : 4.430538             -8.410827            -3.947022
| 46>   H                    : 4.918615             -10.093391           -3.951193
| 47> *
| 48>
| 49> #Run DFT-D3 single point of the particle with dimer basis set
| 50> $new_job
| 51> %base "14-217_DFT_B"
| 52> ! wB97X-D3 def2-TZVP TIGHTSCF CHELPG PMODEL
| 53>
| 54> %scf
| 55> MaxIter 1000
| 56> end
| 57>
| 58> * xyz 0 1
| 59>   C                    : 10.242377            -10.248014           -3.879707
| 60>   O                    : 9.187961             -11.052101           -4.037601
| 61>   H                    : 8.501068             -10.580617           -4.604402
| 62>   H                    : 10.923181            -10.606605           -3.093706
| 63>   H                    : 10.822002            -10.008953           -4.765578
| 64>   H                    : 9.877021             -9.244007            -3.470137
| 65>   C                      5.199033             -9.097002            -3.574988
| 66>   O                      6.451183             -8.695826            -4.091905
| 67>   H                      6.443825             -8.843585            -5.019329
| 68>   H                      5.190633             -9.018108            -2.425357
| 69>   H                      4.430538             -8.410827            -3.947022
| 70>   H                      4.918615             -10.093391           -3.951193
| 71> *
| 72>
| 73>                          ****END OF INPUT****
 Total Charge           Charge          ....    0
 Multiplicity           Mult            ....    1
 Number of Electrons    NEL             ....   36
Dispersion correction           -0.001341282
FINAL SINGLE POINT ENERGY      -231.463438504015
Dispersion correction           -0.000222484
FINAL SINGLE POINT ENERGY      -115.728278668256

CARTESIAN COORDINATES (ANGSTROEM)
---------------------------------
  C     10.242377  -10.248014   -3.879707
  O      9.187961  -11.052101   -4.037601
  H      8.501068  -10.580617   -4.604402
  H     10.923181  -10.606605   -3.093706
  H     10.822002  -10.008953   -4.765578
  H      9.877021   -9.244007   -3.470137
  C      5.199033   -9.097002   -3.574988
  O      6.451183   -8.695826   -4.091905
  H      6.443825   -8.843585   -5.019329
  H      5.190633   -9.018108   -2.425357
  H      4.430538   -8.410827   -3.947022
  H      4.918615  -10.093391   -3.951193

 Multiplicity           Mult            ....    1
 Number of Electrons    NEL             ....   18
 Basis Dimension        Dim             ....  172

ORBITAL ENERGIES
----------------

  NO   OCC          E(Eh)            E(eV)
   0   2.0000     -19.228568      -523.2359
   1   2.0000     -10.320996      -280.8486
   2   2.0000      -1.141736       -31.0682
   3   2.0000      -0.792012       -21.5517
   4   2.0000      -0.615023       -16.7356
   5   2.0000      -0.539971       -14.6934
   6   2.0000      -0.524750       -14.2792
   7   2.0000      -0.435459       -11.8494
   8   2.0000      -0.371783       -10.1167
   9   0.0000       0.093757         2.5513
  10   0.0000       0.120987         3.2922
  11   0.0000       0.154477         4.2035
  12   0.0000       0.184412         5.0181
  13   0.0000       0.194885         5.3031

MULLIKEN ATOMIC CHARGES
-----------------------
   0 C :    0.002941
   1 O :    0.000652
   2 H :   -0.009744
   3 H :   -0.000010
   4 H :   -0.000131
   5 H :   -0.002608
   6 C :   -0.165684
   7 O :   -0.462276
   8 H :    0.312013
   9 H :    0.121489
  10 H :    0.103697
  11 H :    0.099663
Sum of atomic charges:    0.0000000

LOEWDIN ATOMIC CHARGES
----------------------
   0 C :   -0.001101
   1 O :   -0.000865
   2 H :   -0.007933
   3 H :   -0.000005
   4 H :   -0.000008
   5 H :   -0.001150
   6 C :   -0.390745
   7 O :   -0.061775
   8 H :    0.155495
   9 H :    0.120636
  10 H :    0.093345
  11 H :    0.094106

  Mayer bond orders larger than 0.1
B(  6-C ,  7-O ) :   0.9927 B(  6-C ,  9-H ) :   0.9703 B(  6-C , 10-H ) :   0.9767
B(  6-C , 11-H ) :   0.9758 B(  7-O ,  8-H ) :   0.9014

Dispersion correction           -0.000233672
FINAL SINGLE POINT ENERGY      -115.733510869777

DIPOLE MOMENT
-------------
                                X             Y             Z
Electronic contribution:      1.66268       0.49338      -0.50900
Nuclear contribution   :     -2.18331      -0.73063       0.10990
                        -----------------------------------------
Total Dipole Moment    :     -0.52063      -0.23725      -0.39910
                        -----------------------------------------
Magnitude (a.u.)       :      0.69758
Magnitude (Debye)      :      1.77311

Rotational constants in cm-1:     4.161319     0.836968     0.797465
Rotational constants in MHz : 124753.199683 25091.665622 23907.410161

                             ****ORCA TERMINATED NORMALLY****
TOTAL RUN TIME: 0 days 0 hours 1 minutes 8 seconds 691 msec
