                         Program Version 4.1.2  - RELEASE  -
|  1> #Run DFT-D3 single point of the dimer
|  2> ! wB97X-D3 def2-TZVP TIGHTSCF CHELPG PMODEL PAL8
|  3>
|  4> %base "7-209_DFT_AB"
|  5>
|  6> %scf
|  7> MaxIter 1000
|  8> end
|  9>
| 10> * xyz 0 1
| 11>   C                      1.133568             -0.516884            6.785558
| 12>   O                      1.915771             0.504868             7.331157
| 13>   H                      2.600641             0.127832             7.936668
| 14>   H                      0.461457             -0.935861            7.569601
| 15>   H                      0.563237             -0.144390            5.969614
| 16>   H                      1.757236             -1.298917            6.418166
| 17>   C                      2.241648             -0.699059            11.241527
| 18>   O                      2.677461             -0.105327            10.033882
| 19>   H                      3.418930             -0.696632            9.772260
| 20>   H                      3.012818             -0.809925            12.069879
| 21>   H                      1.484717             -0.087162            11.710411
| 22>   H                      1.718825             -1.693604            11.161412
| 23> *
| 24>
| 25> #Run DFT-D3 single point of the molecule with dimer basis set
| 26> $new_job
| 27> %base "7-209_DFT_A"
| 28> ! wB97X-D3 def2-TZVP TIGHTSCF CHELPG PMODEL
| 29>
| 30> %scf
| 31> MaxIter 1000
| 32> end
| 33>
| 34> * xyz 0 1
| 35>   C                      1.133568             -0.516884            6.785558
| 36>   O                      1.915771             0.504868             7.331157
| 37>   H                      2.600641             0.127832             7.936668
| 38>   H                      0.461457             -0.935861            7.569601
| 39>   H                      0.563237             -0.144390            5.969614
| 40>   H                      1.757236             -1.298917            6.418166
| 41>   C                    : 2.241648             -0.699059            11.241527
| 42>   O                    : 2.677461             -0.105327            10.033882
| 43>   H                    : 3.418930             -0.696632            9.772260
| 44>   H                    : 3.012818             -0.809925            12.069879
| 45>   H                    : 1.484717             -0.087162            11.710411
| 46>   H                    : 1.718825             -1.693604            11.161412
| 47> *
| 48>
| 49> #Run DFT-D3 single point of the particle with dimer basis set
| 50> $new_job
| 51> %base "7-209_DFT_B"
| 52> ! wB97X-D3 def2-TZVP TIGHTSCF CHELPG PMODEL
| 53>
| 54> %scf
| 55> MaxIter 1000
| 56> end
| 57>
| 58> * xyz 0 1
| 59>   C                    : 1.133568             -0.516884            6.785558
| 60>   O                    : 1.915771             0.504868             7.331157
| 61>   H                    : 2.600641             0.127832             7.936668
| 62>   H                    : 0.461457             -0.935861            7.569601
| 63>   H                    : 0.563237             -0.144390            5.969614
| 64>   H                    : 1.757236             -1.298917            6.418166
| 65>   C                      2.241648             -0.699059            11.241527
| 66>   O                      2.677461             -0.105327            10.033882
| 67>   H                      3.418930             -0.696632            9.772260
| 68>   H                      3.012818             -0.809925            12.069879
| 69>   H                      1.484717             -0.087162            11.710411
| 70>   H                      1.718825             -1.693604            11.161412
| 71> *
| 72>
| 73>                          ****END OF INPUT****
 Total Charge           Charge          ....    0
 Multiplicity           Mult            ....    1
 Number of Electrons    NEL             ....   36
Dispersion correction           -0.001604882
FINAL SINGLE POINT ENERGY      -231.465798431679
Dispersion correction           -0.000226876
FINAL SINGLE POINT ENERGY      -115.734952698806

CARTESIAN COORDINATES (ANGSTROEM)
---------------------------------
  C      1.133568   -0.516884    6.785558
  O      1.915771    0.504868    7.331157
  H      2.600641    0.127832    7.936668
  H      0.461457   -0.935861    7.569601
  H      0.563237   -0.144390    5.969614
  H      1.757236   -1.298917    6.418166
  C      2.241648   -0.699059   11.241527
  O      2.677461   -0.105327   10.033882
  H      3.418930   -0.696632    9.772260
  H      3.012818   -0.809925   12.069879
  H      1.484717   -0.087162   11.710411
  H      1.718825   -1.693604   11.161412

 Multiplicity           Mult            ....    1
 Number of Electrons    NEL             ....   18
 Basis Dimension        Dim             ....  172

ORBITAL ENERGIES
----------------

  NO   OCC          E(Eh)            E(eV)
   0   2.0000     -19.243361      -523.6385
   1   2.0000     -10.319478      -280.8073
   2   2.0000      -1.140092       -31.0235
   3   2.0000      -0.791134       -21.5278
   4   2.0000      -0.608871       -16.5682
   5   2.0000      -0.533802       -14.5255
   6   2.0000      -0.528429       -14.3793
   7   2.0000      -0.438272       -11.9260
   8   2.0000      -0.378421       -10.2974
   9   0.0000       0.093168         2.5352
  10   0.0000       0.124892         3.3985
  11   0.0000       0.143871         3.9149
  12   0.0000       0.194039         5.2801
  13   0.0000       0.198188         5.3930

MULLIKEN ATOMIC CHARGES
-----------------------
   0 C :   -0.002778
   1 O :    0.005601
   2 H :   -0.012292
   3 H :   -0.000919
   4 H :   -0.000368
   5 H :    0.000035
   6 C :   -0.193218
   7 O :   -0.443796
   8 H :    0.320963
   9 H :    0.101522
  10 H :    0.123422
  11 H :    0.101827
Sum of atomic charges:    0.0000000

LOEWDIN ATOMIC CHARGES
----------------------
   0 C :   -0.004191
   1 O :   -0.006485
   2 H :   -0.024316
   3 H :   -0.000971
   4 H :   -0.000101
   5 H :   -0.000127
   6 C :   -0.412133
   7 O :   -0.049554
   8 H :    0.192375
   9 H :    0.101699
  10 H :    0.104621
  11 H :    0.099183

  Mayer bond orders larger than 0.1
B(  6-C ,  7-O ) :   1.0109 B(  6-C ,  9-H ) :   0.9685 B(  6-C , 10-H ) :   0.9774
B(  6-C , 11-H ) :   0.9683 B(  7-O ,  8-H ) :   0.8940

Dispersion correction           -0.000269663
FINAL SINGLE POINT ENERGY      -115.731801437292

DIPOLE MOMENT
-------------
                                X             Y             Z
Electronic contribution:      0.53982       0.95626      -1.74028
Nuclear contribution   :     -0.26529      -1.51065       2.04724
                        -----------------------------------------
Total Dipole Moment    :      0.27453      -0.55439       0.30697
                        -----------------------------------------
Magnitude (a.u.)       :      0.69061
Magnitude (Debye)      :      1.75539

Rotational constants in cm-1:     4.268572     0.813358     0.788315
Rotational constants in MHz : 127968.573265 24383.846476 23633.098983

                             ****ORCA TERMINATED NORMALLY****
TOTAL RUN TIME: 0 days 0 hours 1 minutes 7 seconds 696 msec
