                         Program Version 4.1.2  - RELEASE  -
|  1> #Run DFT-D3 single point of the dimer
|  2> ! wB97X-D3 def2-TZVP TIGHTSCF  CHELPG PAL8
|  3>
|  4> %base "29_charges"
|  5>
|  6> %scf
|  7> MaxIter 1000
|  8> end
|  9> %output
| 10>   Print[ P_Mayer ] 1
| 11>   Print[ P_NatPop ] 1
| 12>   Print[ P_Hirshfeld ] 1
| 13>   Print[ P_Mulliken ] 1
| 14>   Print [ P_Loewdin ] 1
| 15> end
| 16>
| 17> * xyz 0 1
| 18>   C                      3.540197             -6.342750            -10.430402
| 19>   O                      4.462776             -5.840784            -11.379339
| 20>   H                      5.128077             -5.287987            -11.018687
| 21>   H                      3.056872             -7.295456            -10.783025
| 22>   H                      3.944501             -6.473952            -9.436705
| 23>   H                      2.747391             -5.537854            -10.306292
| 24> *
| 25>
| 26>                          ****END OF INPUT****

CARTESIAN COORDINATES (ANGSTROEM)
---------------------------------
  C      3.540197   -6.342750  -10.430402
  O      4.462776   -5.840784  -11.379339
  H      5.128077   -5.287987  -11.018687
  H      3.056872   -7.295456  -10.783025
  H      3.944501   -6.473952   -9.436705
  H      2.747391   -5.537854  -10.306292

 Total Charge           Charge          ....    0
 Multiplicity           Mult            ....    1
 Number of Electrons    NEL             ....   18
 Basis Dimension        Dim             ....   86

ORBITAL ENERGIES
----------------

  NO   OCC          E(Eh)            E(eV)
   0   2.0000     -19.224868      -523.1353
   1   2.0000     -10.320913      -280.8463
   2   2.0000      -1.135871       -30.9086
   3   2.0000      -0.796027       -21.6610
   4   2.0000      -0.616806       -16.7841
   5   2.0000      -0.534009       -14.5311
   6   2.0000      -0.525779       -14.3072
   7   2.0000      -0.430572       -11.7165
   8   2.0000      -0.368264       -10.0210
   9   0.0000       0.117805         3.2056
  10   0.0000       0.153013         4.1637
  11   0.0000       0.196117         5.3366
  12   0.0000       0.202449         5.5089
  13   0.0000       0.232259         6.3201

MULLIKEN ATOMIC CHARGES
-----------------------
   0 C :   -0.154828
   1 O :   -0.482921
   2 H :    0.313795
   3 H :    0.120040
   4 H :    0.106611
   5 H :    0.097304
Sum of atomic charges:    0.0000000

LOEWDIN ATOMIC CHARGES
----------------------
   0 C :   -0.385177
   1 O :   -0.072283
   2 H :    0.151414
   3 H :    0.113682
   4 H :    0.090589
   5 H :    0.101775

  Mayer bond orders larger than 0.1
B(  0-C ,  1-O ) :   0.9932 B(  0-C ,  3-H ) :   0.9693 B(  0-C ,  4-H ) :   0.9738
B(  0-C ,  5-H ) :   0.9814 B(  1-O ,  2-H ) :   0.8995

Dispersion correction           -0.000258770
FINAL SINGLE POINT ENERGY      -115.731737679834

DIPOLE MOMENT
-------------
                                X             Y             Z
Electronic contribution:      1.22620       0.45364      -1.27201
Nuclear contribution   :     -1.13496      -0.30101       1.91607
                        -----------------------------------------
Total Dipole Moment    :      0.09125       0.15263       0.64406
                        -----------------------------------------
Magnitude (a.u.)       :      0.66816
Magnitude (Debye)      :      1.69832

Rotational constants in cm-1:     4.281920     0.820125     0.791686
Rotational constants in MHz : 128368.728238 24586.729937 23734.139035

                             ****ORCA TERMINATED NORMALLY****
TOTAL RUN TIME: 0 days 0 hours 0 minutes 41 seconds 534 msec
