                         Program Version 4.1.2  - RELEASE  -
|  1> #Run DFT-D3 single point of the dimer
|  2> ! wB97X-D3 def2-TZVP TIGHTSCF CHELPG PMODEL PAL8
|  3>
|  4> %base "9-29_DFT_AB"
|  5>
|  6> %scf
|  7> MaxIter 1000
|  8> end
|  9>
| 10> * xyz 0 1
| 11>   C                      -2.236262            -7.219065            -3.038028
| 12>   O                      -2.089203            -8.488530            -3.702297
| 13>   H                      -2.620605            -8.479153            -4.503310
| 14>   H                      -1.906942            -6.405743            -3.624474
| 15>   H                      -3.225869            -6.961767            -2.730361
| 16>   H                      -1.644495            -7.133655            -2.155844
| 17>   C                      -2.831504            -7.759823            -7.278792
| 18>   O                      -1.512623            -8.337088            -7.344358
| 19>   H                      -1.351188            -8.770977            -8.192856
| 20>   H                      -3.681112            -8.443216            -6.889418
| 21>   H                      -2.832331            -6.876342            -6.649877
| 22>   H                      -3.162068            -7.395431            -8.223280
| 23> *
| 24>
| 25> #Run DFT-D3 single point of the molecule with dimer basis set
| 26> $new_job
| 27> %base "9-29_DFT_A"
| 28> ! wB97X-D3 def2-TZVP TIGHTSCF CHELPG PMODEL
| 29>
| 30> %scf
| 31> MaxIter 1000
| 32> end
| 33>
| 34> * xyz 0 1
| 35>   C                      -2.236262            -7.219065            -3.038028
| 36>   O                      -2.089203            -8.488530            -3.702297
| 37>   H                      -2.620605            -8.479153            -4.503310
| 38>   H                      -1.906942            -6.405743            -3.624474
| 39>   H                      -3.225869            -6.961767            -2.730361
| 40>   H                      -1.644495            -7.133655            -2.155844
| 41>   C                    : -2.831504            -7.759823            -7.278792
| 42>   O                    : -1.512623            -8.337088            -7.344358
| 43>   H                    : -1.351188            -8.770977            -8.192856
| 44>   H                    : -3.681112            -8.443216            -6.889418
| 45>   H                    : -2.832331            -6.876342            -6.649877
| 46>   H                    : -3.162068            -7.395431            -8.223280
| 47> *
| 48>
| 49> #Run DFT-D3 single point of the particle with dimer basis set
| 50> $new_job
| 51> %base "9-29_DFT_B"
| 52> ! wB97X-D3 def2-TZVP TIGHTSCF CHELPG PMODEL
| 53>
| 54> %scf
| 55> MaxIter 1000
| 56> end
| 57>
| 58> * xyz 0 1
| 59>   C                    : -2.236262            -7.219065            -3.038028
| 60>   O                    : -2.089203            -8.488530            -3.702297
| 61>   H                    : -2.620605            -8.479153            -4.503310
| 62>   H                    : -1.906942            -6.405743            -3.624474
| 63>   H                    : -3.225869            -6.961767            -2.730361
| 64>   H                    : -1.644495            -7.133655            -2.155844
| 65>   C                      -2.831504            -7.759823            -7.278792
| 66>   O                      -1.512623            -8.337088            -7.344358
| 67>   H                      -1.351188            -8.770977            -8.192856
| 68>   H                      -3.681112            -8.443216            -6.889418
| 69>   H                      -2.832331            -6.876342            -6.649877
| 70>   H                      -3.162068            -7.395431            -8.223280
| 71> *
| 72>
| 73>                          ****END OF INPUT****
 Total Charge           Charge          ....    0
 Multiplicity           Mult            ....    1
 Number of Electrons    NEL             ....   36
Dispersion correction           -0.001729808
FINAL SINGLE POINT ENERGY      -231.464535116787
Dispersion correction           -0.000258077
FINAL SINGLE POINT ENERGY      -115.732577772966

CARTESIAN COORDINATES (ANGSTROEM)
---------------------------------
  C     -2.236262   -7.219065   -3.038028
  O     -2.089203   -8.488530   -3.702297
  H     -2.620605   -8.479153   -4.503310
  H     -1.906942   -6.405743   -3.624474
  H     -3.225869   -6.961767   -2.730361
  H     -1.644495   -7.133655   -2.155844
  C     -2.831504   -7.759823   -7.278792
  O     -1.512623   -8.337088   -7.344358
  H     -1.351188   -8.770977   -8.192856
  H     -3.681112   -8.443216   -6.889418
  H     -2.832331   -6.876342   -6.649877
  H     -3.162068   -7.395431   -8.223280

 Multiplicity           Mult            ....    1
 Number of Electrons    NEL             ....   18
 Basis Dimension        Dim             ....  172

ORBITAL ENERGIES
----------------

  NO   OCC          E(Eh)            E(eV)
   0   2.0000     -19.233192      -523.3618
   1   2.0000     -10.318837      -280.7898
   2   2.0000      -1.125916       -30.6377
   3   2.0000      -0.798443       -21.7267
   4   2.0000      -0.610314       -16.6075
   5   2.0000      -0.528660       -14.3856
   6   2.0000      -0.526043       -14.3144
   7   2.0000      -0.432044       -11.7565
   8   2.0000      -0.375865       -10.2278
   9   0.0000       0.091552         2.4912
  10   0.0000       0.118605         3.2274
  11   0.0000       0.147171         4.0047
  12   0.0000       0.177263         4.8236
  13   0.0000       0.188268         5.1230

MULLIKEN ATOMIC CHARGES
-----------------------
   0 C :   -0.000371
   1 O :   -0.000629
   2 H :    0.002805
   3 H :    0.000121
   4 H :   -0.000043
   5 H :    0.000013
   6 C :   -0.175122
   7 O :   -0.485650
   8 H :    0.318927
   9 H :    0.101328
  10 H :    0.123437
  11 H :    0.115184
Sum of atomic charges:   -0.0000000

LOEWDIN ATOMIC CHARGES
----------------------
   0 C :   -0.000735
   1 O :   -0.000450
   2 H :   -0.003954
   3 H :   -0.000292
   4 H :   -0.000017
   5 H :   -0.000003
   6 C :   -0.371257
   7 O :   -0.096012
   8 H :    0.170424
   9 H :    0.107299
  10 H :    0.105653
  11 H :    0.089345

  Mayer bond orders larger than 0.1
B(  6-C ,  7-O ) :   1.0037 B(  6-C ,  9-H ) :   0.9691 B(  6-C , 10-H ) :   0.9746
B(  6-C , 11-H ) :   0.9774 B(  7-O ,  8-H ) :   0.8950

Dispersion correction           -0.000285957
FINAL SINGLE POINT ENERGY      -115.731312867116

DIPOLE MOMENT
-------------
                                X             Y             Z
Electronic contribution:      1.78735      -0.71081       0.01136
Nuclear contribution   :     -2.21618       0.71127      -0.56636
                        -----------------------------------------
Total Dipole Moment    :     -0.42883       0.00046      -0.55499
                        -----------------------------------------
Magnitude (a.u.)       :      0.70137
Magnitude (Debye)      :      1.78273

Rotational constants in cm-1:     4.407860     0.784784     0.766070
Rotational constants in MHz : 132144.323984 23527.239669 22966.186042

                             ****ORCA TERMINATED NORMALLY****
TOTAL RUN TIME: 0 days 0 hours 0 minutes 41 seconds 931 msec
