                         Program Version 4.1.2  - RELEASE  -
|  1> #Run DFT-D3 single point of the dimer
|  2> ! wB97X-D3 def2-TZVP TIGHTSCF CHELPG PMODEL PAL8
|  3>
|  4> %base "11-66_DFT_AB"
|  5>
|  6> %scf
|  7> MaxIter 1000
|  8> end
|  9>
| 10> * xyz 0 1
| 11>   C                      0.029205             -3.305085            5.575801
| 12>   O                      -1.152025            -2.596991            5.492510
| 13>   H                      -0.980307            -2.042697            4.669758
| 14>   H                      0.889800             -2.641096            5.935441
| 15>   H                      -0.058726            -4.169142            6.203153
| 16>   H                      0.260555             -3.587206            4.550461
| 17>   C                      -2.958133            -5.910956            1.866469
| 18>   O                      -2.832775            -7.293299            1.854868
| 19>   H                      -3.467590            -7.636709            1.262656
| 20>   H                      -2.945001            -5.442606            0.902511
| 21>   H                      -3.971730            -5.552848            2.280433
| 22>   H                      -2.192545            -5.548036            2.414765
| 23> *
| 24>
| 25> #Run DFT-D3 single point of the molecule with dimer basis set
| 26> $new_job
| 27> %base "11-66_DFT_A"
| 28> ! wB97X-D3 def2-TZVP TIGHTSCF CHELPG PMODEL
| 29>
| 30> %scf
| 31> MaxIter 1000
| 32> end
| 33>
| 34> * xyz 0 1
| 35>   C                      0.029205             -3.305085            5.575801
| 36>   O                      -1.152025            -2.596991            5.492510
| 37>   H                      -0.980307            -2.042697            4.669758
| 38>   H                      0.889800             -2.641096            5.935441
| 39>   H                      -0.058726            -4.169142            6.203153
| 40>   H                      0.260555             -3.587206            4.550461
| 41>   C                    : -2.958133            -5.910956            1.866469
| 42>   O                    : -2.832775            -7.293299            1.854868
| 43>   H                    : -3.467590            -7.636709            1.262656
| 44>   H                    : -2.945001            -5.442606            0.902511
| 45>   H                    : -3.971730            -5.552848            2.280433
| 46>   H                    : -2.192545            -5.548036            2.414765
| 47> *
| 48>
| 49> #Run DFT-D3 single point of the particle with dimer basis set
| 50> $new_job
| 51> %base "11-66_DFT_B"
| 52> ! wB97X-D3 def2-TZVP TIGHTSCF CHELPG PMODEL
| 53>
| 54> %scf
| 55> MaxIter 1000
| 56> end
| 57>
| 58> * xyz 0 1
| 59>   C                    : 0.029205             -3.305085            5.575801
| 60>   O                    : -1.152025            -2.596991            5.492510
| 61>   H                    : -0.980307            -2.042697            4.669758
| 62>   H                    : 0.889800             -2.641096            5.935441
| 63>   H                    : -0.058726            -4.169142            6.203153
| 64>   H                    : 0.260555             -3.587206            4.550461
| 65>   C                      -2.958133            -5.910956            1.866469
| 66>   O                      -2.832775            -7.293299            1.854868
| 67>   H                      -3.467590            -7.636709            1.262656
| 68>   H                      -2.945001            -5.442606            0.902511
| 69>   H                      -3.971730            -5.552848            2.280433
| 70>   H                      -2.192545            -5.548036            2.414765
| 71> *
| 72>
| 73>                          ****END OF INPUT****
 Total Charge           Charge          ....    0
 Multiplicity           Mult            ....    1
 Number of Electrons    NEL             ....   36
Dispersion correction           -0.000667750
FINAL SINGLE POINT ENERGY      -231.456942993150
Dispersion correction           -0.000203093
FINAL SINGLE POINT ENERGY      -115.727896696217

CARTESIAN COORDINATES (ANGSTROEM)
---------------------------------
  C      0.029205   -3.305085    5.575801
  O     -1.152025   -2.596991    5.492510
  H     -0.980307   -2.042697    4.669758
  H      0.889800   -2.641096    5.935441
  H     -0.058726   -4.169142    6.203153
  H      0.260555   -3.587206    4.550461
  C     -2.958133   -5.910956    1.866469
  O     -2.832775   -7.293299    1.854868
  H     -3.467590   -7.636709    1.262656
  H     -2.945001   -5.442606    0.902511
  H     -3.971730   -5.552848    2.280433
  H     -2.192545   -5.548036    2.414765

 Multiplicity           Mult            ....    1
 Number of Electrons    NEL             ....   18
 Basis Dimension        Dim             ....  172

ORBITAL ENERGIES
----------------

  NO   OCC          E(Eh)            E(eV)
   0   2.0000     -19.229314      -523.2562
   1   2.0000     -10.305175      -280.4181
   2   2.0000      -1.150579       -31.3088
   3   2.0000      -0.803846       -21.8738
   4   2.0000      -0.624340       -16.9892
   5   2.0000      -0.541262       -14.7285
   6   2.0000      -0.531418       -14.4606
   7   2.0000      -0.443933       -12.0800
   8   2.0000      -0.370392       -10.0789
   9   0.0000       0.085820         2.3353
  10   0.0000       0.118734         3.2309
  11   0.0000       0.154672         4.2088
  12   0.0000       0.169881         4.6227
  13   0.0000       0.183693         4.9985

MULLIKEN ATOMIC CHARGES
-----------------------
   0 C :    0.000015
   1 O :   -0.000001
   2 H :   -0.000006
   3 H :   -0.000001
   4 H :   -0.000003
   5 H :   -0.000085
   6 C :   -0.158939
   7 O :   -0.458831
   8 H :    0.308943
   9 H :    0.099095
  10 H :    0.081618
  11 H :    0.128195
Sum of atomic charges:   -0.0000000

LOEWDIN ATOMIC CHARGES
----------------------
   0 C :   -0.000076
   1 O :   -0.000005
   2 H :   -0.000009
   3 H :   -0.000001
   4 H :   -0.000003
   5 H :   -0.000078
   6 C :   -0.393712
   7 O :   -0.038797
   8 H :    0.153792
   9 H :    0.089484
  10 H :    0.100714
  11 H :    0.088691

  Mayer bond orders larger than 0.1
B(  6-C ,  7-O ) :   1.0096 B(  6-C ,  9-H ) :   0.9739 B(  6-C , 10-H ) :   0.9758
B(  6-C , 11-H ) :   0.9780 B(  7-O ,  8-H ) :   0.9067

Dispersion correction           -0.000228277
FINAL SINGLE POINT ENERGY      -115.728841042637

DIPOLE MOMENT
-------------
                                X             Y             Z
Electronic contribution:      0.42600      -1.83883       0.07594
Nuclear contribution   :     -0.84406       2.14032      -0.47466
                        -----------------------------------------
Total Dipole Moment    :     -0.41806       0.30149      -0.39872
                        -----------------------------------------
Magnitude (a.u.)       :      0.65165
Magnitude (Debye)      :      1.65636

Rotational constants in cm-1:     4.487101     0.858477     0.826950
Rotational constants in MHz : 134519.914412 25736.482950 24791.324195

                             ****ORCA TERMINATED NORMALLY****
TOTAL RUN TIME: 0 days 0 hours 1 minutes 9 seconds 875 msec
