                         Program Version 4.1.2  - RELEASE  -
|  1> #Run DFT-D3 single point of the dimer
|  2> ! wB97X-D3 def2-TZVP TIGHTSCF CHELPG PMODEL PAL8
|  3>
|  4> %base "9-190_DFT_AB"
|  5>
|  6> %scf
|  7> MaxIter 1000
|  8> end
|  9>
| 10> * xyz 0 1
| 11>   C                      -5.822313            0.855547             3.318697
| 12>   O                      -5.400111            0.443276             4.555475
| 13>   H                      -6.043504            -0.212960            4.935816
| 14>   H                      -5.987072            0.054597             2.640367
| 15>   H                      -6.826729            1.497216             3.257010
| 16>   H                      -5.089060            1.332691             2.752819
| 17>   C                      -2.497234            1.424267             4.891622
| 18>   O                      -2.654171            0.374319             3.913851
| 19>   H                      -3.592682            0.040974             4.025586
| 20>   H                      -1.416648            1.782374             5.033693
| 21>   H                      -3.003030            2.364827             4.689943
| 22>   H                      -2.756721            1.046714             5.876505
| 23> *
| 24>
| 25> #Run DFT-D3 single point of the molecule with dimer basis set
| 26> $new_job
| 27> %base "9-190_DFT_A"
| 28> ! wB97X-D3 def2-TZVP TIGHTSCF CHELPG PMODEL
| 29>
| 30> %scf
| 31> MaxIter 1000
| 32> end
| 33>
| 34> * xyz 0 1
| 35>   C                      -5.822313            0.855547             3.318697
| 36>   O                      -5.400111            0.443276             4.555475
| 37>   H                      -6.043504            -0.212960            4.935816
| 38>   H                      -5.987072            0.054597             2.640367
| 39>   H                      -6.826729            1.497216             3.257010
| 40>   H                      -5.089060            1.332691             2.752819
| 41>   C                    : -2.497234            1.424267             4.891622
| 42>   O                    : -2.654171            0.374319             3.913851
| 43>   H                    : -3.592682            0.040974             4.025586
| 44>   H                    : -1.416648            1.782374             5.033693
| 45>   H                    : -3.003030            2.364827             4.689943
| 46>   H                    : -2.756721            1.046714             5.876505
| 47> *
| 48>
| 49> #Run DFT-D3 single point of the particle with dimer basis set
| 50> $new_job
| 51> %base "9-190_DFT_B"
| 52> ! wB97X-D3 def2-TZVP TIGHTSCF CHELPG PMODEL
| 53>
| 54> %scf
| 55> MaxIter 1000
| 56> end
| 57>
| 58> * xyz 0 1
| 59>   C                    : -5.822313            0.855547             3.318697
| 60>   O                    : -5.400111            0.443276             4.555475
| 61>   H                    : -6.043504            -0.212960            4.935816
| 62>   H                    : -5.987072            0.054597             2.640367
| 63>   H                    : -6.826729            1.497216             3.257010
| 64>   H                    : -5.089060            1.332691             2.752819
| 65>   C                      -2.497234            1.424267             4.891622
| 66>   O                      -2.654171            0.374319             3.913851
| 67>   H                      -3.592682            0.040974             4.025586
| 68>   H                      -1.416648            1.782374             5.033693
| 69>   H                      -3.003030            2.364827             4.689943
| 70>   H                      -2.756721            1.046714             5.876505
| 71> *
| 72>
| 73>                          ****END OF INPUT****
 Total Charge           Charge          ....    0
 Multiplicity           Mult            ....    1
 Number of Electrons    NEL             ....   36
Dispersion correction           -0.002258992
FINAL SINGLE POINT ENERGY      -231.460114715219
Dispersion correction           -0.000261775
FINAL SINGLE POINT ENERGY      -115.723315974398

CARTESIAN COORDINATES (ANGSTROEM)
---------------------------------
  C     -5.822313    0.855547    3.318697
  O     -5.400111    0.443276    4.555475
  H     -6.043504   -0.212960    4.935816
  H     -5.987072    0.054597    2.640367
  H     -6.826729    1.497216    3.257010
  H     -5.089060    1.332691    2.752819
  C     -2.497234    1.424267    4.891622
  O     -2.654171    0.374319    3.913851
  H     -3.592682    0.040974    4.025586
  H     -1.416648    1.782374    5.033693
  H     -3.003030    2.364827    4.689943
  H     -2.756721    1.046714    5.876505

 Multiplicity           Mult            ....    1
 Number of Electrons    NEL             ....   18
 Basis Dimension        Dim             ....  172

ORBITAL ENERGIES
----------------

  NO   OCC          E(Eh)            E(eV)
   0   2.0000     -19.240148      -523.5510
   1   2.0000     -10.319890      -280.8185
   2   2.0000      -1.123722       -30.5780
   3   2.0000      -0.792479       -21.5645
   4   2.0000      -0.600372       -16.3370
   5   2.0000      -0.544382       -14.8134
   6   2.0000      -0.518730       -14.1154
   7   2.0000      -0.429455       -11.6861
   8   2.0000      -0.379027       -10.3138
   9   0.0000       0.068676         1.8688
  10   0.0000       0.137315         3.7365
  11   0.0000       0.141909         3.8615
  12   0.0000       0.161635         4.3983
  13   0.0000       0.191963         5.2236

MULLIKEN ATOMIC CHARGES
-----------------------
   0 C :   -0.006187
   1 O :   -0.004482
   2 H :   -0.000454
   3 H :    0.000827
   4 H :   -0.000405
   5 H :   -0.004324
   6 C :   -0.189342
   7 O :   -0.464495
   8 H :    0.323402
   9 H :    0.120736
  10 H :    0.113179
  11 H :    0.111545
Sum of atomic charges:   -0.0000000

LOEWDIN ATOMIC CHARGES
----------------------
   0 C :   -0.014939
   1 O :   -0.020796
   2 H :   -0.001067
   3 H :   -0.000548
   4 H :   -0.000174
   5 H :   -0.004835
   6 C :   -0.379271
   7 O :   -0.093183
   8 H :    0.206719
   9 H :    0.118900
  10 H :    0.094272
  11 H :    0.094922

  Mayer bond orders larger than 0.1
B(  6-C ,  7-O ) :   0.9981 B(  6-C ,  9-H ) :   0.9718 B(  6-C , 10-H ) :   0.9685
B(  6-C , 11-H ) :   0.9856 B(  7-O ,  8-H ) :   0.8948

Dispersion correction           -0.000272295
FINAL SINGLE POINT ENERGY      -115.729904478278

DIPOLE MOMENT
-------------
                                X             Y             Z
Electronic contribution:     -0.14141      -1.35779      -1.39713
Nuclear contribution   :     -0.34655       1.58077       1.87344
                        -----------------------------------------
Total Dipole Moment    :     -0.48796       0.22298       0.47631
                        -----------------------------------------
Magnitude (a.u.)       :      0.71742
Magnitude (Debye)      :      1.82354

Rotational constants in cm-1:     4.281421     0.788851     0.762511
Rotational constants in MHz : 128353.760053 23649.155533 22859.513677

                             ****ORCA TERMINATED NORMALLY****
TOTAL RUN TIME: 0 days 0 hours 0 minutes 48 seconds 662 msec
