                         Program Version 4.1.2  - RELEASE  -
|  1> #Run DFT-D3 single point of the dimer
|  2> ! wB97X-D3 def2-TZVP TIGHTSCF CHELPG PMODEL PAL8
|  3>
|  4> %base "22-164_DFT_AB"
|  5>
|  6> %scf
|  7> MaxIter 1000
|  8> end
|  9>
| 10> * xyz 0 1
| 11>   C                      1.095944             8.166273             0.776603
| 12>   O                      0.517582             8.047650             -0.461068
| 13>   H                      0.706959             8.852177             -0.975110
| 14>   H                      0.550971             9.003790             1.328476
| 15>   H                      1.245504             7.247085             1.380575
| 16>   H                      2.087410             8.582038             0.714807
| 17>   C                      -1.574959            5.552687             0.052939
| 18>   O                      -0.213049            5.315815             -0.311016
| 19>   H                      0.156390             6.059538             -0.790680
| 20>   H                      -2.149226            5.731861             -0.873116
| 21>   H                      -1.975648            4.632163             0.646193
| 22>   H                      -1.674990            6.385533             0.750422
| 23> *
| 24>
| 25> #Run DFT-D3 single point of the molecule with dimer basis set
| 26> $new_job
| 27> %base "22-164_DFT_A"
| 28> ! wB97X-D3 def2-TZVP TIGHTSCF CHELPG PMODEL
| 29>
| 30> %scf
| 31> MaxIter 1000
| 32> end
| 33>
| 34> * xyz 0 1
| 35>   C                      1.095944             8.166273             0.776603
| 36>   O                      0.517582             8.047650             -0.461068
| 37>   H                      0.706959             8.852177             -0.975110
| 38>   H                      0.550971             9.003790             1.328476
| 39>   H                      1.245504             7.247085             1.380575
| 40>   H                      2.087410             8.582038             0.714807
| 41>   C                    : -1.574959            5.552687             0.052939
| 42>   O                    : -0.213049            5.315815             -0.311016
| 43>   H                    : 0.156390             6.059538             -0.790680
| 44>   H                    : -2.149226            5.731861             -0.873116
| 45>   H                    : -1.975648            4.632163             0.646193
| 46>   H                    : -1.674990            6.385533             0.750422
| 47> *
| 48>
| 49> #Run DFT-D3 single point of the particle with dimer basis set
| 50> $new_job
| 51> %base "22-164_DFT_B"
| 52> ! wB97X-D3 def2-TZVP TIGHTSCF CHELPG PMODEL
| 53>
| 54> %scf
| 55> MaxIter 1000
| 56> end
| 57>
| 58> * xyz 0 1
| 59>   C                    : 1.095944             8.166273             0.776603
| 60>   O                    : 0.517582             8.047650             -0.461068
| 61>   H                    : 0.706959             8.852177             -0.975110
| 62>   H                    : 0.550971             9.003790             1.328476
| 63>   H                    : 1.245504             7.247085             1.380575
| 64>   H                    : 2.087410             8.582038             0.714807
| 65>   C                      -1.574959            5.552687             0.052939
| 66>   O                      -0.213049            5.315815             -0.311016
| 67>   H                      0.156390             6.059538             -0.790680
| 68>   H                      -2.149226            5.731861             -0.873116
| 69>   H                      -1.975648            4.632163             0.646193
| 70>   H                      -1.674990            6.385533             0.750422
| 71> *
| 72>
| 73>                          ****END OF INPUT****
 Total Charge           Charge          ....    0
 Multiplicity           Mult            ....    1
 Number of Electrons    NEL             ....   36
Dispersion correction           -0.002137625
FINAL SINGLE POINT ENERGY      -231.468545124101
Dispersion correction           -0.000223215
FINAL SINGLE POINT ENERGY      -115.727819211604

CARTESIAN COORDINATES (ANGSTROEM)
---------------------------------
  C      1.095944    8.166273    0.776603
  O      0.517582    8.047650   -0.461068
  H      0.706959    8.852177   -0.975110
  H      0.550971    9.003790    1.328476
  H      1.245504    7.247085    1.380575
  H      2.087410    8.582038    0.714807
  C     -1.574959    5.552687    0.052939
  O     -0.213049    5.315815   -0.311016
  H      0.156390    6.059538   -0.790680
  H     -2.149226    5.731861   -0.873116
  H     -1.975648    4.632163    0.646193
  H     -1.674990    6.385533    0.750422

 Multiplicity           Mult            ....    1
 Number of Electrons    NEL             ....   18
 Basis Dimension        Dim             ....  172

ORBITAL ENERGIES
----------------

  NO   OCC          E(Eh)            E(eV)
   0   2.0000     -19.229455      -523.2601
   1   2.0000     -10.323653      -280.9209
   2   2.0000      -1.130186       -30.7539
   3   2.0000      -0.791418       -21.5356
   4   2.0000      -0.606895       -16.5144
   5   2.0000      -0.546002       -14.8575
   6   2.0000      -0.517428       -14.0799
   7   2.0000      -0.426673       -11.6104
   8   2.0000      -0.374804       -10.1989
   9   0.0000       0.073947         2.0122
  10   0.0000       0.136449         3.7130
  11   0.0000       0.143972         3.9177
  12   0.0000       0.165835         4.5126
  13   0.0000       0.189222         5.1490

MULLIKEN ATOMIC CHARGES
-----------------------
   0 C :   -0.003565
   1 O :   -0.005718
   2 H :   -0.000392
   3 H :   -0.000161
   4 H :   -0.004771
   5 H :    0.000124
   6 C :   -0.169316
   7 O :   -0.475853
   8 H :    0.318281
   9 H :    0.110979
  10 H :    0.122547
  11 H :    0.107846
Sum of atomic charges:   -0.0000000

LOEWDIN ATOMIC CHARGES
----------------------
   0 C :   -0.010718
   1 O :   -0.017311
   2 H :   -0.000735
   3 H :   -0.000154
   4 H :   -0.004244
   5 H :   -0.000109
   6 C :   -0.378358
   7 O :   -0.073947
   8 H :    0.170949
   9 H :    0.098425
  10 H :    0.123501
  11 H :    0.092702

  Mayer bond orders larger than 0.1
B(  6-C ,  7-O ) :   0.9912 B(  6-C ,  9-H ) :   0.9813 B(  6-C , 10-H ) :   0.9702
B(  6-C , 11-H ) :   0.9699 B(  7-O ,  8-H ) :   0.8967

Dispersion correction           -0.000255907
FINAL SINGLE POINT ENERGY      -115.733331307862

DIPOLE MOMENT
-------------
                                X             Y             Z
Electronic contribution:      1.68010      -0.36559      -0.44049
Nuclear contribution   :     -2.00384       0.93253       0.28671
                        -----------------------------------------
Total Dipole Moment    :     -0.32374       0.56694      -0.15378
                        -----------------------------------------
Magnitude (a.u.)       :      0.67072
Magnitude (Debye)      :      1.70485

Rotational constants in cm-1:     4.132605     0.812116     0.781709
Rotational constants in MHz : 123892.380590 24346.639599 23435.049138

                             ****ORCA TERMINATED NORMALLY****
TOTAL RUN TIME: 0 days 0 hours 1 minutes 9 seconds 729 msec
