                         Program Version 4.1.2  - RELEASE  -
|  1> #Run DFT-D3 single point of the dimer
|  2> ! wB97X-D3 def2-TZVP TIGHTSCF  CHELPG PAL8
|  3>
|  4> %base "183_charges"
|  5>
|  6> %scf
|  7> MaxIter 1000
|  8> end
|  9> %output
| 10>   Print[ P_Mayer ] 1
| 11>   Print[ P_NatPop ] 1
| 12>   Print[ P_Hirshfeld ] 1
| 13>   Print[ P_Mulliken ] 1
| 14>   Print [ P_Loewdin ] 1
| 15> end
| 16>
| 17> * xyz 0 1
| 18>   C                      -3.982428            2.687221             2.515715
| 19>   O                      -4.259339            1.608512             3.359579
| 20>   H                      -3.679602            1.611278             4.144843
| 21>   H                      -4.512307            2.521342             1.608537
| 22>   H                      -4.241317            3.708854             2.909489
| 23>   H                      -2.881701            2.589572             2.278494
| 24> *
| 25>
| 26>                          ****END OF INPUT****

CARTESIAN COORDINATES (ANGSTROEM)
---------------------------------
  C     -3.982428    2.687221    2.515715
  O     -4.259339    1.608512    3.359579
  H     -3.679602    1.611278    4.144843
  H     -4.512307    2.521342    1.608537
  H     -4.241317    3.708854    2.909489
  H     -2.881701    2.589572    2.278494

 Total Charge           Charge          ....    0
 Multiplicity           Mult            ....    1
 Number of Electrons    NEL             ....   18
 Basis Dimension        Dim             ....   86

ORBITAL ENERGIES
----------------

  NO   OCC          E(Eh)            E(eV)
   0   2.0000     -19.228803      -523.2423
   1   2.0000     -10.315452      -280.6977
   2   2.0000      -1.136198       -30.9175
   3   2.0000      -0.792106       -21.5543
   4   2.0000      -0.607248       -16.5241
   5   2.0000      -0.542561       -14.7638
   6   2.0000      -0.532459       -14.4889
   7   2.0000      -0.425571       -11.5804
   8   2.0000      -0.370216       -10.0741
   9   0.0000       0.113272         3.0823
  10   0.0000       0.155815         4.2399
  11   0.0000       0.200041         5.4434
  12   0.0000       0.205802         5.6002
  13   0.0000       0.223358         6.0779

MULLIKEN ATOMIC CHARGES
-----------------------
   0 C :   -0.149553
   1 O :   -0.480421
   2 H :    0.318008
   3 H :    0.121504
   4 H :    0.094430
   5 H :    0.096033
Sum of atomic charges:   -0.0000000

LOEWDIN ATOMIC CHARGES
----------------------
   0 C :   -0.400747
   1 O :   -0.076805
   2 H :    0.177175
   3 H :    0.101497
   4 H :    0.096963
   5 H :    0.101917

  Mayer bond orders larger than 0.1
B(  0-C ,  1-O ) :   1.0023 B(  0-C ,  3-H ) :   0.9727 B(  0-C ,  4-H ) :   0.9640
B(  0-C ,  5-H ) :   0.9887 B(  1-O ,  2-H ) :   0.8932

Dispersion correction           -0.000243681
FINAL SINGLE POINT ENERGY      -115.732692199043

DIPOLE MOMENT
-------------
                                X             Y             Z
Electronic contribution:     -0.55806      -1.35594       1.00630
Nuclear contribution   :      1.02073       1.75275      -0.85489
                        -----------------------------------------
Total Dipole Moment    :      0.46267       0.39681       0.15141
                        -----------------------------------------
Magnitude (a.u.)       :      0.62805
Magnitude (Debye)      :      1.59638

Rotational constants in cm-1:     4.189911     0.841135     0.819441
Rotational constants in MHz : 125610.377993 25216.590093 24566.233948

                             ****ORCA TERMINATED NORMALLY****
TOTAL RUN TIME: 0 days 0 hours 0 minutes 44 seconds 254 msec
