                         Program Version 4.1.2  - RELEASE  -
|  1> #Run DFT-D3 single point of the dimer
|  2> ! wB97X-D3 def2-TZVP TIGHTSCF CHELPG PMODEL PAL8
|  3>
|  4> %base "15-43_DFT_AB"
|  5>
|  6> %scf
|  7> MaxIter 1000
|  8> end
|  9>
| 10> * xyz 0 1
| 11>   C                      7.027536             3.700445             1.588677
| 12>   O                      7.121738             4.093266             0.247516
| 13>   H                      7.366341             3.333908             -0.299382
| 14>   H                      8.023769             3.471064             2.076743
| 15>   H                      6.544191             4.464693             2.197487
| 16>   H                      6.420623             2.848499             1.708700
| 17>   C                      8.333353             5.513837             5.380126
| 18>   O                      9.205957             5.227535             6.419786
| 19>   H                      8.747401             5.686495             7.167722
| 20>   H                      7.288762             5.499684             5.703675
| 21>   H                      8.573081             6.488046             4.882362
| 22>   H                      8.373617             4.670108             4.635545
| 23> *
| 24>
| 25> #Run DFT-D3 single point of the molecule with dimer basis set
| 26> $new_job
| 27> %base "15-43_DFT_A"
| 28> ! wB97X-D3 def2-TZVP TIGHTSCF CHELPG PMODEL
| 29>
| 30> %scf
| 31> MaxIter 1000
| 32> end
| 33>
| 34> * xyz 0 1
| 35>   C                      7.027536             3.700445             1.588677
| 36>   O                      7.121738             4.093266             0.247516
| 37>   H                      7.366341             3.333908             -0.299382
| 38>   H                      8.023769             3.471064             2.076743
| 39>   H                      6.544191             4.464693             2.197487
| 40>   H                      6.420623             2.848499             1.708700
| 41>   C                    : 8.333353             5.513837             5.380126
| 42>   O                    : 9.205957             5.227535             6.419786
| 43>   H                    : 8.747401             5.686495             7.167722
| 44>   H                    : 7.288762             5.499684             5.703675
| 45>   H                    : 8.573081             6.488046             4.882362
| 46>   H                    : 8.373617             4.670108             4.635545
| 47> *
| 48>
| 49> #Run DFT-D3 single point of the particle with dimer basis set
| 50> $new_job
| 51> %base "15-43_DFT_B"
| 52> ! wB97X-D3 def2-TZVP TIGHTSCF CHELPG PMODEL
| 53>
| 54> %scf
| 55> MaxIter 1000
| 56> end
| 57>
| 58> * xyz 0 1
| 59>   C                    : 7.027536             3.700445             1.588677
| 60>   O                    : 7.121738             4.093266             0.247516
| 61>   H                    : 7.366341             3.333908             -0.299382
| 62>   H                    : 8.023769             3.471064             2.076743
| 63>   H                    : 6.544191             4.464693             2.197487
| 64>   H                    : 6.420623             2.848499             1.708700
| 65>   C                      8.333353             5.513837             5.380126
| 66>   O                      9.205957             5.227535             6.419786
| 67>   H                      8.747401             5.686495             7.167722
| 68>   H                      7.288762             5.499684             5.703675
| 69>   H                      8.573081             6.488046             4.882362
| 70>   H                      8.373617             4.670108             4.635545
| 71> *
| 72>
| 73>                          ****END OF INPUT****
 Total Charge           Charge          ....    0
 Multiplicity           Mult            ....    1
 Number of Electrons    NEL             ....   36
Dispersion correction           -0.001103628
FINAL SINGLE POINT ENERGY      -231.466539999692
Dispersion correction           -0.000247625
FINAL SINGLE POINT ENERGY      -115.734466462444

CARTESIAN COORDINATES (ANGSTROEM)
---------------------------------
  C      7.027536    3.700445    1.588677
  O      7.121738    4.093266    0.247516
  H      7.366341    3.333908   -0.299382
  H      8.023769    3.471064    2.076743
  H      6.544191    4.464693    2.197487
  H      6.420623    2.848499    1.708700
  C      8.333353    5.513837    5.380126
  O      9.205957    5.227535    6.419786
  H      8.747401    5.686495    7.167722
  H      7.288762    5.499684    5.703675
  H      8.573081    6.488046    4.882362
  H      8.373617    4.670108    4.635545

 Multiplicity           Mult            ....    1
 Number of Electrons    NEL             ....   18
 Basis Dimension        Dim             ....  172

ORBITAL ENERGIES
----------------

  NO   OCC          E(Eh)            E(eV)
   0   2.0000     -19.235962      -523.4371
   1   2.0000     -10.316517      -280.7267
   2   2.0000      -1.145965       -31.1833
   3   2.0000      -0.783505       -21.3203
   4   2.0000      -0.612707       -16.6726
   5   2.0000      -0.547760       -14.9053
   6   2.0000      -0.523564       -14.2469
   7   2.0000      -0.433036       -11.7835
   8   2.0000      -0.374213       -10.1829
   9   0.0000       0.084776         2.3069
  10   0.0000       0.109808         2.9880
  11   0.0000       0.142407         3.8751
  12   0.0000       0.175942         4.7876
  13   0.0000       0.182772         4.9735

MULLIKEN ATOMIC CHARGES
-----------------------
   0 C :   -0.000402
   1 O :   -0.000006
   2 H :   -0.000001
   3 H :   -0.000167
   4 H :    0.000154
   5 H :    0.000035
   6 C :   -0.178870
   7 O :   -0.453649
   8 H :    0.318680
   9 H :    0.102816
  10 H :    0.098006
  11 H :    0.113403
Sum of atomic charges:    0.0000000

LOEWDIN ATOMIC CHARGES
----------------------
   0 C :   -0.001781
   1 O :   -0.000009
   2 H :   -0.000002
   3 H :   -0.001378
   4 H :   -0.000515
   5 H :   -0.000014
   6 C :   -0.424853
   7 O :   -0.069063
   8 H :    0.194114
   9 H :    0.093630
  10 H :    0.098008
  11 H :    0.111864

  Mayer bond orders larger than 0.1
B(  6-C ,  7-O ) :   1.0123 B(  6-C ,  9-H ) :   0.9823 B(  6-C , 10-H ) :   0.9687
B(  6-C , 11-H ) :   0.9744 B(  7-O ,  8-H ) :   0.8972

Dispersion correction           -0.000225492
FINAL SINGLE POINT ENERGY      -115.731467353676

DIPOLE MOMENT
-------------
                                X             Y             Z
Electronic contribution:      1.30112      -0.41073       1.33116
Nuclear contribution   :     -1.91593       0.77121      -1.22827
                        -----------------------------------------
Total Dipole Moment    :     -0.61481       0.36049       0.10288
                        -----------------------------------------
Magnitude (a.u.)       :      0.72009
Magnitude (Debye)      :      1.83032

Rotational constants in cm-1:     4.065057     0.858539     0.830681
Rotational constants in MHz : 121867.348847 25738.349244 24903.183651

                             ****ORCA TERMINATED NORMALLY****
TOTAL RUN TIME: 0 days 0 hours 0 minutes 57 seconds 930 msec
