                         Program Version 4.1.2  - RELEASE  -
|  1> #Run DFT-D3 single point of the dimer
|  2> ! wB97X-D3 def2-TZVP TIGHTSCF CHELPG PMODEL PAL8
|  3>
|  4> %base "18-134_DFT_AB"
|  5>
|  6> %scf
|  7> MaxIter 1000
|  8> end
|  9>
| 10> * xyz 0 1
| 11>   C                      8.975860             6.983749             0.416720
| 12>   O                      8.086384             7.854023             -0.264035
| 13>   H                      8.109435             8.661414             0.109359
| 14>   H                      8.587323             5.946020             0.290470
| 15>   H                      9.905775             7.007106             -0.095493
| 16>   H                      9.124228             7.255210             1.408441
| 17>   C                      10.848118            7.824750             -2.470334
| 18>   O                      11.993097            7.155389             -2.165314
| 19>   H                      12.550077            7.808222             -1.733062
| 20>   H                      10.196917            7.106182             -3.000592
| 21>   H                      10.322060            8.301167             -1.664126
| 22>   H                      11.091193            8.539928             -3.250908
| 23> *
| 24>
| 25> #Run DFT-D3 single point of the molecule with dimer basis set
| 26> $new_job
| 27> %base "18-134_DFT_A"
| 28> ! wB97X-D3 def2-TZVP TIGHTSCF CHELPG PMODEL
| 29>
| 30> %scf
| 31> MaxIter 1000
| 32> end
| 33>
| 34> * xyz 0 1
| 35>   C                      8.975860             6.983749             0.416720
| 36>   O                      8.086384             7.854023             -0.264035
| 37>   H                      8.109435             8.661414             0.109359
| 38>   H                      8.587323             5.946020             0.290470
| 39>   H                      9.905775             7.007106             -0.095493
| 40>   H                      9.124228             7.255210             1.408441
| 41>   C                    : 10.848118            7.824750             -2.470334
| 42>   O                    : 11.993097            7.155389             -2.165314
| 43>   H                    : 12.550077            7.808222             -1.733062
| 44>   H                    : 10.196917            7.106182             -3.000592
| 45>   H                    : 10.322060            8.301167             -1.664126
| 46>   H                    : 11.091193            8.539928             -3.250908
| 47> *
| 48>
| 49> #Run DFT-D3 single point of the particle with dimer basis set
| 50> $new_job
| 51> %base "18-134_DFT_B"
| 52> ! wB97X-D3 def2-TZVP TIGHTSCF CHELPG PMODEL
| 53>
| 54> %scf
| 55> MaxIter 1000
| 56> end
| 57>
| 58> * xyz 0 1
| 59>   C                    : 8.975860             6.983749             0.416720
| 60>   O                    : 8.086384             7.854023             -0.264035
| 61>   H                    : 8.109435             8.661414             0.109359
| 62>   H                    : 8.587323             5.946020             0.290470
| 63>   H                    : 9.905775             7.007106             -0.095493
| 64>   H                    : 9.124228             7.255210             1.408441
| 65>   C                      10.848118            7.824750             -2.470334
| 66>   O                      11.993097            7.155389             -2.165314
| 67>   H                      12.550077            7.808222             -1.733062
| 68>   H                      10.196917            7.106182             -3.000592
| 69>   H                      10.322060            8.301167             -1.664126
| 70>   H                      11.091193            8.539928             -3.250908
| 71> *
| 72>
| 73>                          ****END OF INPUT****
 Total Charge           Charge          ....    0
 Multiplicity           Mult            ....    1
 Number of Electrons    NEL             ....   36
Dispersion correction           -0.001929224
FINAL SINGLE POINT ENERGY      -231.460816160302
Dispersion correction           -0.000223001
FINAL SINGLE POINT ENERGY      -115.727821731750

CARTESIAN COORDINATES (ANGSTROEM)
---------------------------------
  C      8.975860    6.983749    0.416720
  O      8.086384    7.854023   -0.264035
  H      8.109435    8.661414    0.109359
  H      8.587323    5.946020    0.290470
  H      9.905775    7.007106   -0.095493
  H      9.124228    7.255210    1.408441
  C     10.848118    7.824750   -2.470334
  O     11.993097    7.155389   -2.165314
  H     12.550077    7.808222   -1.733062
  H     10.196917    7.106182   -3.000592
  H     10.322060    8.301167   -1.664126
  H     11.091193    8.539928   -3.250908

 Multiplicity           Mult            ....    1
 Number of Electrons    NEL             ....   18
 Basis Dimension        Dim             ....  172

ORBITAL ENERGIES
----------------

  NO   OCC          E(Eh)            E(eV)
   0   2.0000     -19.230811      -523.2970
   1   2.0000     -10.305280      -280.4209
   2   2.0000      -1.156597       -31.4726
   3   2.0000      -0.792428       -21.5631
   4   2.0000      -0.621520       -16.9124
   5   2.0000      -0.554243       -15.0817
   6   2.0000      -0.530245       -14.4287
   7   2.0000      -0.431835       -11.7508
   8   2.0000      -0.371278       -10.1030
   9   0.0000       0.087113         2.3705
  10   0.0000       0.121474         3.3055
  11   0.0000       0.157170         4.2768
  12   0.0000       0.168698         4.5905
  13   0.0000       0.201368         5.4795

MULLIKEN ATOMIC CHARGES
-----------------------
   0 C :   -0.006553
   1 O :    0.000797
   2 H :   -0.000214
   3 H :    0.000076
   4 H :    0.005509
   5 H :    0.000256
   6 C :   -0.171354
   7 O :   -0.458762
   8 H :    0.313644
   9 H :    0.108037
  10 H :    0.103632
  11 H :    0.104932
Sum of atomic charges:    0.0000000

LOEWDIN ATOMIC CHARGES
----------------------
   0 C :   -0.008862
   1 O :   -0.002807
   2 H :   -0.000975
   3 H :   -0.000096
   4 H :   -0.007916
   5 H :   -0.000072
   6 C :   -0.424208
   7 O :   -0.033411
   8 H :    0.175592
   9 H :    0.113968
  10 H :    0.095384
  11 H :    0.093403

  Mayer bond orders larger than 0.1
B(  6-C ,  7-O ) :   0.9860 B(  6-C ,  9-H ) :   0.9761 B(  6-C , 10-H ) :   0.9730
B(  6-C , 11-H ) :   0.9857 B(  7-O ,  8-H ) :   0.9006

Dispersion correction           -0.000204907
FINAL SINGLE POINT ENERGY      -115.732012902672

DIPOLE MOMENT
-------------
                                X             Y             Z
Electronic contribution:      1.45342      -0.97834       0.52819
Nuclear contribution   :     -1.50764       1.62345      -0.37859
                        -----------------------------------------
Total Dipole Moment    :     -0.05422       0.64511       0.14960
                        -----------------------------------------
Magnitude (a.u.)       :      0.66444
Magnitude (Debye)      :      1.68888

Rotational constants in cm-1:     4.294945     0.893923     0.858316
Rotational constants in MHz : 128759.214724 26799.146867 25731.657453

                             ****ORCA TERMINATED NORMALLY****
TOTAL RUN TIME: 0 days 0 hours 0 minutes 59 seconds 75 msec
