                         Program Version 4.1.2  - RELEASE  -
|  1> #Run DFT-D3 single point of the dimer
|  2> ! wB97X-D3 def2-TZVP TIGHTSCF CHELPG PMODEL PAL8
|  3>
|  4> %base "21-136_DFT_AB"
|  5>
|  6> %scf
|  7> MaxIter 1000
|  8> end
|  9>
| 10> * xyz 0 1
| 11>   C                      10.289126            -2.634421            -1.941004
| 12>   O                      9.433432             -3.716244            -2.341455
| 13>   H                      9.747974             -4.128017            -3.118309
| 14>   H                      10.432611            -1.866400            -2.787029
| 15>   H                      9.803779             -2.111440            -1.050015
| 16>   H                      11.290492            -3.035278            -1.606334
| 17>   C                      7.466065             -3.999256            0.827095
| 18>   O                      8.832655             -4.358056            0.492466
| 19>   H                      8.881168             -4.298765            -0.452549
| 20>   H                      6.750486             -4.461312            0.112883
| 21>   H                      7.217903             -4.383547            1.770714
| 22>   H                      7.366971             -2.931192            0.819060
| 23> *
| 24>
| 25> #Run DFT-D3 single point of the molecule with dimer basis set
| 26> $new_job
| 27> %base "21-136_DFT_A"
| 28> ! wB97X-D3 def2-TZVP TIGHTSCF CHELPG PMODEL
| 29>
| 30> %scf
| 31> MaxIter 1000
| 32> end
| 33>
| 34> * xyz 0 1
| 35>   C                      10.289126            -2.634421            -1.941004
| 36>   O                      9.433432             -3.716244            -2.341455
| 37>   H                      9.747974             -4.128017            -3.118309
| 38>   H                      10.432611            -1.866400            -2.787029
| 39>   H                      9.803779             -2.111440            -1.050015
| 40>   H                      11.290492            -3.035278            -1.606334
| 41>   C                    : 7.466065             -3.999256            0.827095
| 42>   O                    : 8.832655             -4.358056            0.492466
| 43>   H                    : 8.881168             -4.298765            -0.452549
| 44>   H                    : 6.750486             -4.461312            0.112883
| 45>   H                    : 7.217903             -4.383547            1.770714
| 46>   H                    : 7.366971             -2.931192            0.819060
| 47> *
| 48>
| 49> #Run DFT-D3 single point of the particle with dimer basis set
| 50> $new_job
| 51> %base "21-136_DFT_B"
| 52> ! wB97X-D3 def2-TZVP TIGHTSCF CHELPG PMODEL
| 53>
| 54> %scf
| 55> MaxIter 1000
| 56> end
| 57>
| 58> * xyz 0 1
| 59>   C                    : 10.289126            -2.634421            -1.941004
| 60>   O                    : 9.433432             -3.716244            -2.341455
| 61>   H                    : 9.747974             -4.128017            -3.118309
| 62>   H                    : 10.432611            -1.866400            -2.787029
| 63>   H                    : 9.803779             -2.111440            -1.050015
| 64>   H                    : 11.290492            -3.035278            -1.606334
| 65>   C                      7.466065             -3.999256            0.827095
| 66>   O                      8.832655             -4.358056            0.492466
| 67>   H                      8.881168             -4.298765            -0.452549
| 68>   H                      6.750486             -4.461312            0.112883
| 69>   H                      7.217903             -4.383547            1.770714
| 70>   H                      7.366971             -2.931192            0.819060
| 71> *
| 72>
| 73>                          ****END OF INPUT****
 Total Charge           Charge          ....    0
 Multiplicity           Mult            ....    1
 Number of Electrons    NEL             ....   36
Dispersion correction           -0.001920214
FINAL SINGLE POINT ENERGY      -231.475482179999
Dispersion correction           -0.000273729
FINAL SINGLE POINT ENERGY      -115.732544643299

CARTESIAN COORDINATES (ANGSTROEM)
---------------------------------
  C     10.289126   -2.634421   -1.941004
  O      9.433432   -3.716244   -2.341455
  H      9.747974   -4.128017   -3.118309
  H     10.432611   -1.866400   -2.787029
  H      9.803779   -2.111440   -1.050015
  H     11.290492   -3.035278   -1.606334
  C      7.466065   -3.999256    0.827095
  O      8.832655   -4.358056    0.492466
  H      8.881168   -4.298765   -0.452549
  H      6.750486   -4.461312    0.112883
  H      7.217903   -4.383547    1.770714
  H      7.366971   -2.931192    0.819060

 Multiplicity           Mult            ....    1
 Number of Electrons    NEL             ....   18
 Basis Dimension        Dim             ....  172

ORBITAL ENERGIES
----------------

  NO   OCC          E(Eh)            E(eV)
   0   2.0000     -19.229524      -523.2620
   1   2.0000     -10.311546      -280.5914
   2   2.0000      -1.129001       -30.7217
   3   2.0000      -0.801470       -21.8091
   4   2.0000      -0.602863       -16.4047
   5   2.0000      -0.546835       -14.8801
   6   2.0000      -0.525743       -14.3062
   7   2.0000      -0.439438       -11.9577
   8   2.0000      -0.377016       -10.2591
   9   0.0000       0.075419         2.0523
  10   0.0000       0.133878         3.6430
  11   0.0000       0.150822         4.1041
  12   0.0000       0.164561         4.4779
  13   0.0000       0.193584         5.2677

MULLIKEN ATOMIC CHARGES
-----------------------
   0 C :   -0.005747
   1 O :   -0.002110
   2 H :   -0.000270
   3 H :   -0.000439
   4 H :   -0.004427
   5 H :    0.000743
   6 C :   -0.170494
   7 O :   -0.465124
   8 H :    0.309140
   9 H :    0.104542
  10 H :    0.122396
  11 H :    0.111790
Sum of atomic charges:   -0.0000000

LOEWDIN ATOMIC CHARGES
----------------------
   0 C :   -0.011286
   1 O :   -0.013963
   2 H :   -0.000722
   3 H :   -0.000160
   4 H :   -0.004371
   5 H :   -0.000489
   6 C :   -0.346078
   7 O :   -0.080861
   8 H :    0.165618
   9 H :    0.101911
  10 H :    0.096879
  11 H :    0.093523

  Mayer bond orders larger than 0.1
B(  6-C ,  7-O ) :   0.9979 B(  6-C ,  9-H ) :   0.9828 B(  6-C , 10-H ) :   0.9763
B(  6-C , 11-H ) :   0.9721 B(  7-O ,  8-H ) :   0.9111

Dispersion correction           -0.000237120
FINAL SINGLE POINT ENERGY      -115.734858833574

DIPOLE MOMENT
-------------
                                X             Y             Z
Electronic contribution:      1.70490      -0.43568      -0.18432
Nuclear contribution   :     -2.26183       0.60589      -0.24288
                        -----------------------------------------
Total Dipole Moment    :     -0.55692       0.17021      -0.42719
                        -----------------------------------------
Magnitude (a.u.)       :      0.72224
Magnitude (Debye)      :      1.83578

Rotational constants in cm-1:     4.347798     0.803062     0.779114
Rotational constants in MHz : 130343.691150 24075.190418 23357.241209

                             ****ORCA TERMINATED NORMALLY****
TOTAL RUN TIME: 0 days 0 hours 1 minutes 3 seconds 441 msec
