                         Program Version 4.1.2  - RELEASE  -
|  1> #Run DFT-D3 single point of the dimer
|  2> ! wB97X-D3 def2-TZVP TIGHTSCF CHELPG PMODEL PAL8
|  3>
|  4> %base "13-83_DFT_AB"
|  5>
|  6> %scf
|  7> MaxIter 1000
|  8> end
|  9>
| 10> * xyz 0 1
| 11>   C                      -2.473489            2.754382             -3.587635
| 12>   O                      -2.443331            4.137999             -3.468418
| 13>   H                      -2.406738            4.647574             -4.288539
| 14>   H                      -1.822514            2.438176             -4.417710
| 15>   H                      -2.095098            2.370439             -2.644488
| 16>   H                      -3.458589            2.327411             -3.868728
| 17>   C                      -5.438823            2.939611             0.653369
| 18>   O                      -5.878226            2.898767             2.003602
| 19>   H                      -6.781193            3.161789             1.905700
| 20>   H                      -4.325486            2.925350             0.716673
| 21>   H                      -5.760783            2.003888             0.186387
| 22>   H                      -5.762836            3.829153             0.087394
| 23> *
| 24>
| 25> #Run DFT-D3 single point of the molecule with dimer basis set
| 26> $new_job
| 27> %base "13-83_DFT_A"
| 28> ! wB97X-D3 def2-TZVP TIGHTSCF CHELPG PMODEL
| 29>
| 30> %scf
| 31> MaxIter 1000
| 32> end
| 33>
| 34> * xyz 0 1
| 35>   C                      -2.473489            2.754382             -3.587635
| 36>   O                      -2.443331            4.137999             -3.468418
| 37>   H                      -2.406738            4.647574             -4.288539
| 38>   H                      -1.822514            2.438176             -4.417710
| 39>   H                      -2.095098            2.370439             -2.644488
| 40>   H                      -3.458589            2.327411             -3.868728
| 41>   C                    : -5.438823            2.939611             0.653369
| 42>   O                    : -5.878226            2.898767             2.003602
| 43>   H                    : -6.781193            3.161789             1.905700
| 44>   H                    : -4.325486            2.925350             0.716673
| 45>   H                    : -5.760783            2.003888             0.186387
| 46>   H                    : -5.762836            3.829153             0.087394
| 47> *
| 48>
| 49> #Run DFT-D3 single point of the particle with dimer basis set
| 50> $new_job
| 51> %base "13-83_DFT_B"
| 52> ! wB97X-D3 def2-TZVP TIGHTSCF CHELPG PMODEL
| 53>
| 54> %scf
| 55> MaxIter 1000
| 56> end
| 57>
| 58> * xyz 0 1
| 59>   C                    : -2.473489            2.754382             -3.587635
| 60>   O                    : -2.443331            4.137999             -3.468418
| 61>   H                    : -2.406738            4.647574             -4.288539
| 62>   H                    : -1.822514            2.438176             -4.417710
| 63>   H                    : -2.095098            2.370439             -2.644488
| 64>   H                    : -3.458589            2.327411             -3.868728
| 65>   C                      -5.438823            2.939611             0.653369
| 66>   O                      -5.878226            2.898767             2.003602
| 67>   H                      -6.781193            3.161789             1.905700
| 68>   H                      -4.325486            2.925350             0.716673
| 69>   H                      -5.760783            2.003888             0.186387
| 70>   H                      -5.762836            3.829153             0.087394
| 71> *
| 72>
| 73>                          ****END OF INPUT****
 Total Charge           Charge          ....    0
 Multiplicity           Mult            ....    1
 Number of Electrons    NEL             ....   36
Dispersion correction           -0.000707087
FINAL SINGLE POINT ENERGY      -231.467234520050
Dispersion correction           -0.000251151
FINAL SINGLE POINT ENERGY      -115.733398966488

CARTESIAN COORDINATES (ANGSTROEM)
---------------------------------
  C     -2.473489    2.754382   -3.587635
  O     -2.443331    4.137999   -3.468418
  H     -2.406738    4.647574   -4.288539
  H     -1.822514    2.438176   -4.417710
  H     -2.095098    2.370439   -2.644488
  H     -3.458589    2.327411   -3.868728
  C     -5.438823    2.939611    0.653369
  O     -5.878226    2.898767    2.003602
  H     -6.781193    3.161789    1.905700
  H     -4.325486    2.925350    0.716673
  H     -5.760783    2.003888    0.186387
  H     -5.762836    3.829153    0.087394

 Multiplicity           Mult            ....    1
 Number of Electrons    NEL             ....   18
 Basis Dimension        Dim             ....  172

ORBITAL ENERGIES
----------------

  NO   OCC          E(Eh)            E(eV)
   0   2.0000     -19.228748      -523.2408
   1   2.0000     -10.316343      -280.7220
   2   2.0000      -1.141687       -31.0669
   3   2.0000      -0.789852       -21.4930
   4   2.0000      -0.609569       -16.5872
   5   2.0000      -0.546388       -14.8680
   6   2.0000      -0.517712       -14.0877
   7   2.0000      -0.442380       -12.0378
   8   2.0000      -0.373876       -10.1737
   9   0.0000       0.082813         2.2535
  10   0.0000       0.115701         3.1484
  11   0.0000       0.147080         4.0022
  12   0.0000       0.165638         4.5073
  13   0.0000       0.184208         5.0125

MULLIKEN ATOMIC CHARGES
-----------------------
   0 C :    0.000107
   1 O :   -0.000008
   2 H :   -0.000000
   3 H :    0.000001
   4 H :   -0.000099
   5 H :   -0.000021
   6 C :   -0.177705
   7 O :   -0.462113
   8 H :    0.308355
   9 H :    0.117064
  10 H :    0.105649
  11 H :    0.108771
Sum of atomic charges:   -0.0000000

LOEWDIN ATOMIC CHARGES
----------------------
   0 C :   -0.000050
   1 O :   -0.000004
   2 H :   -0.000000
   3 H :   -0.000001
   4 H :   -0.000042
   5 H :   -0.000008
   6 C :   -0.387788
   7 O :   -0.077029
   8 H :    0.159998
   9 H :    0.112576
  10 H :    0.095698
  11 H :    0.096652

  Mayer bond orders larger than 0.1
B(  6-C ,  7-O ) :   0.9951 B(  6-C ,  9-H ) :   0.9764 B(  6-C , 10-H ) :   0.9782
B(  6-C , 11-H ) :   0.9706 B(  7-O ,  8-H ) :   0.9092

Dispersion correction           -0.000220712
FINAL SINGLE POINT ENERGY      -115.733412267805

DIPOLE MOMENT
-------------
                                X             Y             Z
Electronic contribution:     -0.48973      -0.02364       1.71383
Nuclear contribution   :      0.10289       0.20880      -2.28834
                        -----------------------------------------
Total Dipole Moment    :     -0.38685       0.18516      -0.57451
                        -----------------------------------------
Magnitude (a.u.)       :      0.71694
Magnitude (Debye)      :      1.82230

Rotational constants in cm-1:     4.118795     0.839984     0.808529
Rotational constants in MHz : 123478.353726 25182.089519 24239.083432

                             ****ORCA TERMINATED NORMALLY****
TOTAL RUN TIME: 0 days 0 hours 1 minutes 3 seconds 390 msec
