                         Program Version 4.1.2  - RELEASE  -
|  1> #Run DFT-D3 single point of the dimer
|  2> ! wB97X-D3 def2-TZVP TIGHTSCF CHELPG PMODEL PAL8
|  3>
|  4> %base "9-64_DFT_AB"
|  5>
|  6> %scf
|  7> MaxIter 1000
|  8> end
|  9>
| 10> * xyz 0 1
| 11>   C                      8.125646             0.140868             0.205538
| 12>   O                      9.020085             0.985751             0.913121
| 13>   H                      8.829592             1.132982             1.835882
| 14>   H                      7.075105             0.521568             0.141395
| 15>   H                      8.639908             -0.057721            -0.755773
| 16>   H                      8.148752             -0.882839            0.640323
| 17>   C                      8.440851             4.101556             -1.792450
| 18>   O                      7.899929             3.599774             -0.570047
| 19>   H                      8.574306             3.057650             -0.195285
| 20>   H                      9.545632             4.229841             -1.805738
| 21>   H                      8.330681             3.390921             -2.631952
| 22>   H                      8.075778             5.093911             -2.047035
| 23> *
| 24>
| 25> #Run DFT-D3 single point of the molecule with dimer basis set
| 26> $new_job
| 27> %base "9-64_DFT_A"
| 28> ! wB97X-D3 def2-TZVP TIGHTSCF CHELPG PMODEL
| 29>
| 30> %scf
| 31> MaxIter 1000
| 32> end
| 33>
| 34> * xyz 0 1
| 35>   C                      8.125646             0.140868             0.205538
| 36>   O                      9.020085             0.985751             0.913121
| 37>   H                      8.829592             1.132982             1.835882
| 38>   H                      7.075105             0.521568             0.141395
| 39>   H                      8.639908             -0.057721            -0.755773
| 40>   H                      8.148752             -0.882839            0.640323
| 41>   C                    : 8.440851             4.101556             -1.792450
| 42>   O                    : 7.899929             3.599774             -0.570047
| 43>   H                    : 8.574306             3.057650             -0.195285
| 44>   H                    : 9.545632             4.229841             -1.805738
| 45>   H                    : 8.330681             3.390921             -2.631952
| 46>   H                    : 8.075778             5.093911             -2.047035
| 47> *
| 48>
| 49> #Run DFT-D3 single point of the particle with dimer basis set
| 50> $new_job
| 51> %base "9-64_DFT_B"
| 52> ! wB97X-D3 def2-TZVP TIGHTSCF CHELPG PMODEL
| 53>
| 54> %scf
| 55> MaxIter 1000
| 56> end
| 57>
| 58> * xyz 0 1
| 59>   C                    : 8.125646             0.140868             0.205538
| 60>   O                    : 9.020085             0.985751             0.913121
| 61>   H                    : 8.829592             1.132982             1.835882
| 62>   H                    : 7.075105             0.521568             0.141395
| 63>   H                    : 8.639908             -0.057721            -0.755773
| 64>   H                    : 8.148752             -0.882839            0.640323
| 65>   C                      8.440851             4.101556             -1.792450
| 66>   O                      7.899929             3.599774             -0.570047
| 67>   H                      8.574306             3.057650             -0.195285
| 68>   H                      9.545632             4.229841             -1.805738
| 69>   H                      8.330681             3.390921             -2.631952
| 70>   H                      8.075778             5.093911             -2.047035
| 71> *
| 72>
| 73>                          ****END OF INPUT****
 Total Charge           Charge          ....    0
 Multiplicity           Mult            ....    1
 Number of Electrons    NEL             ....   36
Dispersion correction           -0.001762170
FINAL SINGLE POINT ENERGY      -231.471778395020
Dispersion correction           -0.000272531
FINAL SINGLE POINT ENERGY      -115.732048663685

CARTESIAN COORDINATES (ANGSTROEM)
---------------------------------
  C      8.125646    0.140868    0.205538
  O      9.020085    0.985751    0.913121
  H      8.829592    1.132982    1.835882
  H      7.075105    0.521568    0.141395
  H      8.639908   -0.057721   -0.755773
  H      8.148752   -0.882839    0.640323
  C      8.440851    4.101556   -1.792450
  O      7.899929    3.599774   -0.570047
  H      8.574306    3.057650   -0.195285
  H      9.545632    4.229841   -1.805738
  H      8.330681    3.390921   -2.631952
  H      8.075778    5.093911   -2.047035

 Multiplicity           Mult            ....    1
 Number of Electrons    NEL             ....   18
 Basis Dimension        Dim             ....  172

ORBITAL ENERGIES
----------------

  NO   OCC          E(Eh)            E(eV)
   0   2.0000     -19.235016      -523.4114
   1   2.0000     -10.317947      -280.7656
   2   2.0000      -1.139717       -31.0133
   3   2.0000      -0.797876       -21.7113
   4   2.0000      -0.615838       -16.7578
   5   2.0000      -0.541131       -14.7249
   6   2.0000      -0.520064       -14.1517
   7   2.0000      -0.439602       -11.9622
   8   2.0000      -0.377050       -10.2600
   9   0.0000       0.076600         2.0844
  10   0.0000       0.130170         3.5421
  11   0.0000       0.145421         3.9571
  12   0.0000       0.167682         4.5629
  13   0.0000       0.196976         5.3600

MULLIKEN ATOMIC CHARGES
-----------------------
   0 C :   -0.008672
   1 O :    0.000916
   2 H :    0.000002
   3 H :   -0.000590
   4 H :    0.000789
   5 H :   -0.000407
   6 C :   -0.181950
   7 O :   -0.454339
   8 H :    0.313629
   9 H :    0.105194
  10 H :    0.103882
  11 H :    0.121547
Sum of atomic charges:   -0.0000000

LOEWDIN ATOMIC CHARGES
----------------------
   0 C :   -0.007111
   1 O :   -0.005085
   2 H :   -0.000566
   3 H :   -0.001828
   4 H :   -0.000318
   5 H :   -0.000160
   6 C :   -0.383712
   7 O :   -0.064107
   8 H :    0.161595
   9 H :    0.098843
  10 H :    0.097341
  11 H :    0.105109

  Mayer bond orders larger than 0.1
B(  6-C ,  7-O ) :   1.0112 B(  6-C ,  9-H ) :   0.9808 B(  6-C , 10-H ) :   0.9693
B(  6-C , 11-H ) :   0.9732 B(  7-O ,  8-H ) :   0.9046

Dispersion correction           -0.000259508
FINAL SINGLE POINT ENERGY      -115.732910038954

DIPOLE MOMENT
-------------
                                X             Y             Z
Electronic contribution:     -0.96470      -0.53939       1.63895
Nuclear contribution   :      1.63495       0.41693      -1.88000
                        -----------------------------------------
Total Dipole Moment    :      0.67026      -0.12246      -0.24105
                        -----------------------------------------
Magnitude (a.u.)       :      0.72274
Magnitude (Debye)      :      1.83705

Rotational constants in cm-1:     4.386345     0.808737     0.780491
Rotational constants in MHz : 131499.306465 24245.335217 23398.545140

                             ****ORCA TERMINATED NORMALLY****
TOTAL RUN TIME: 0 days 0 hours 0 minutes 44 seconds 115 msec
