                         Program Version 4.1.2  - RELEASE  -
|  1> #Run DFT-D3 single point of the dimer
|  2> ! wB97X-D3 def2-TZVP TIGHTSCF  CHELPG PAL8
|  3>
|  4> %base "122_charges"
|  5>
|  6> %scf
|  7> MaxIter 1000
|  8> end
|  9> %output
| 10>   Print[ P_Mayer ] 1
| 11>   Print[ P_NatPop ] 1
| 12>   Print[ P_Hirshfeld ] 1
| 13>   Print[ P_Mulliken ] 1
| 14>   Print [ P_Loewdin ] 1
| 15> end
| 16>
| 17> * xyz 0 1
| 18>   C                      -9.540335            4.610023             -8.479556
| 19>   O                      -10.154065           5.711114             -7.987363
| 20>   H                      -10.097490           5.676836             -7.013232
| 21>   H                      -8.796061            4.127908             -7.806466
| 22>   H                      -10.310196           3.844959             -8.734153
| 23>   H                      -8.992902            4.779835             -9.369920
| 24> *
| 25>
| 26>                          ****END OF INPUT****

CARTESIAN COORDINATES (ANGSTROEM)
---------------------------------
  C     -9.540335    4.610023   -8.479556
  O    -10.154065    5.711114   -7.987363
  H    -10.097490    5.676836   -7.013232
  H     -8.796061    4.127908   -7.806466
  H    -10.310196    3.844959   -8.734153
  H     -8.992902    4.779835   -9.369920

 Total Charge           Charge          ....    0
 Multiplicity           Mult            ....    1
 Number of Electrons    NEL             ....   18
 Basis Dimension        Dim             ....   86

ORBITAL ENERGIES
----------------

  NO   OCC          E(Eh)            E(eV)
   0   2.0000     -19.232973      -523.3558
   1   2.0000     -10.307133      -280.4714
   2   2.0000      -1.154493       -31.4153
   3   2.0000      -0.792736       -21.5714
   4   2.0000      -0.622251       -16.9323
   5   2.0000      -0.547142       -14.8885
   6   2.0000      -0.535917       -14.5830
   7   2.0000      -0.428300       -11.6546
   8   2.0000      -0.368626       -10.0308
   9   0.0000       0.111889         3.0447
  10   0.0000       0.156351         4.2545
  11   0.0000       0.197920         5.3857
  12   0.0000       0.214550         5.8382
  13   0.0000       0.238525         6.4906

MULLIKEN ATOMIC CHARGES
-----------------------
   0 C :   -0.165152
   1 O :   -0.457208
   2 H :    0.322842
   3 H :    0.095720
   4 H :    0.091042
   5 H :    0.112755
Sum of atomic charges:    0.0000000

LOEWDIN ATOMIC CHARGES
----------------------
   0 C :   -0.440522
   1 O :   -0.036186
   2 H :    0.187584
   3 H :    0.097168
   4 H :    0.097127
   5 H :    0.094829

  Mayer bond orders larger than 0.1
B(  0-C ,  1-O ) :   1.0195 B(  0-C ,  3-H ) :   0.9821 B(  0-C ,  4-H ) :   0.9804
B(  0-C ,  5-H ) :   0.9724 B(  1-O ,  2-H ) :   0.8930

Dispersion correction           -0.000231921
FINAL SINGLE POINT ENERGY      -115.730978244433

DIPOLE MOMENT
-------------
                                X             Y             Z
Electronic contribution:     -0.83449       1.67174       0.55540
Nuclear contribution   :      1.11651      -2.06370      -0.10351
                        -----------------------------------------
Total Dipole Moment    :      0.28202      -0.39196       0.45189
                        -----------------------------------------
Magnitude (a.u.)       :      0.66134
Magnitude (Debye)      :      1.68099

Rotational constants in cm-1:     4.361494     0.882280     0.850598
Rotational constants in MHz : 130754.312897 26450.097872 25500.276429

                             ****ORCA TERMINATED NORMALLY****
TOTAL RUN TIME: 0 days 0 hours 0 minutes 44 seconds 148 msec
