                         Program Version 4.1.2  - RELEASE  -
|  1> #Run DFT-D3 single point of the dimer
|  2> ! wB97X-D3 def2-TZVP TIGHTSCF CHELPG PMODEL PAL8
|  3>
|  4> %base "8-46_DFT_AB"
|  5>
|  6> %scf
|  7> MaxIter 1000
|  8> end
|  9>
| 10> * xyz 0 1
| 11>   C                      8.552612             -7.935893            10.071047
| 12>   O                      7.574977             -7.005132            9.555671
| 13>   H                      7.250363             -7.410425            8.741800
| 14>   H                      8.886957             -7.615184            11.078115
| 15>   H                      8.107898             -8.926959            10.312213
| 16>   H                      9.505592             -8.028052            9.544466
| 17>   C                      4.556447             -11.146728           8.585391
| 18>   O                      3.504731             -11.130168           9.599468
| 19>   H                      3.218830             -10.229139           9.532855
| 20>   H                      5.048867             -12.128453           8.496848
| 21>   H                      4.192706             -10.759853           7.637869
| 22>   H                      5.379233             -10.509743           8.928323
| 23> *
| 24>
| 25> #Run DFT-D3 single point of the molecule with dimer basis set
| 26> $new_job
| 27> %base "8-46_DFT_A"
| 28> ! wB97X-D3 def2-TZVP TIGHTSCF CHELPG PMODEL
| 29>
| 30> %scf
| 31> MaxIter 1000
| 32> end
| 33>
| 34> * xyz 0 1
| 35>   C                      8.552612             -7.935893            10.071047
| 36>   O                      7.574977             -7.005132            9.555671
| 37>   H                      7.250363             -7.410425            8.741800
| 38>   H                      8.886957             -7.615184            11.078115
| 39>   H                      8.107898             -8.926959            10.312213
| 40>   H                      9.505592             -8.028052            9.544466
| 41>   C                    : 4.556447             -11.146728           8.585391
| 42>   O                    : 3.504731             -11.130168           9.599468
| 43>   H                    : 3.218830             -10.229139           9.532855
| 44>   H                    : 5.048867             -12.128453           8.496848
| 45>   H                    : 4.192706             -10.759853           7.637869
| 46>   H                    : 5.379233             -10.509743           8.928323
| 47> *
| 48>
| 49> #Run DFT-D3 single point of the particle with dimer basis set
| 50> $new_job
| 51> %base "8-46_DFT_B"
| 52> ! wB97X-D3 def2-TZVP TIGHTSCF CHELPG PMODEL
| 53>
| 54> %scf
| 55> MaxIter 1000
| 56> end
| 57>
| 58> * xyz 0 1
| 59>   C                    : 8.552612             -7.935893            10.071047
| 60>   O                    : 7.574977             -7.005132            9.555671
| 61>   H                    : 7.250363             -7.410425            8.741800
| 62>   H                    : 8.886957             -7.615184            11.078115
| 63>   H                    : 8.107898             -8.926959            10.312213
| 64>   H                    : 9.505592             -8.028052            9.544466
| 65>   C                      4.556447             -11.146728           8.585391
| 66>   O                      3.504731             -11.130168           9.599468
| 67>   H                      3.218830             -10.229139           9.532855
| 68>   H                      5.048867             -12.128453           8.496848
| 69>   H                      4.192706             -10.759853           7.637869
| 70>   H                      5.379233             -10.509743           8.928323
| 71> *
| 72>
| 73>                          ****END OF INPUT****
 Total Charge           Charge          ....    0
 Multiplicity           Mult            ....    1
 Number of Electrons    NEL             ....   36
Dispersion correction           -0.000850491
FINAL SINGLE POINT ENERGY      -231.464607538979
Dispersion correction           -0.000277159
FINAL SINGLE POINT ENERGY      -115.732310202125

CARTESIAN COORDINATES (ANGSTROEM)
---------------------------------
  C      8.552612   -7.935893   10.071047
  O      7.574977   -7.005132    9.555671
  H      7.250363   -7.410425    8.741800
  H      8.886957   -7.615184   11.078115
  H      8.107898   -8.926959   10.312213
  H      9.505592   -8.028052    9.544466
  C      4.556447  -11.146728    8.585391
  O      3.504731  -11.130168    9.599468
  H      3.218830  -10.229139    9.532855
  H      5.048867  -12.128453    8.496848
  H      4.192706  -10.759853    7.637869
  H      5.379233  -10.509743    8.928323

 Multiplicity           Mult            ....    1
 Number of Electrons    NEL             ....   18
 Basis Dimension        Dim             ....  172

ORBITAL ENERGIES
----------------

  NO   OCC          E(Eh)            E(eV)
   0   2.0000     -19.230428      -523.2865
   1   2.0000     -10.317690      -280.7586
   2   2.0000      -1.129788       -30.7431
   3   2.0000      -0.795591       -21.6491
   4   2.0000      -0.601704       -16.3732
   5   2.0000      -0.541884       -14.7454
   6   2.0000      -0.520304       -14.1582
   7   2.0000      -0.444769       -12.1028
   8   2.0000      -0.374969       -10.2034
   9   0.0000       0.080497         2.1904
  10   0.0000       0.117237         3.1902
  11   0.0000       0.147794         4.0217
  12   0.0000       0.164204         4.4682
  13   0.0000       0.180943         4.9237

MULLIKEN ATOMIC CHARGES
-----------------------
   0 C :   -0.000031
   1 O :    0.000009
   2 H :   -0.000145
   3 H :   -0.000004
   4 H :   -0.000038
   5 H :    0.000006
   6 C :   -0.189817
   7 O :   -0.464078
   8 H :    0.309519
   9 H :    0.124495
  10 H :    0.109588
  11 H :    0.110496
Sum of atomic charges:   -0.0000000

LOEWDIN ATOMIC CHARGES
----------------------
   0 C :   -0.000209
   1 O :   -0.000013
   2 H :   -0.000201
   3 H :   -0.000001
   4 H :   -0.000325
   5 H :   -0.000001
   6 C :   -0.357508
   7 O :   -0.103774
   8 H :    0.159834
   9 H :    0.110987
  10 H :    0.094171
  11 H :    0.097040

  Mayer bond orders larger than 0.1
B(  6-C ,  7-O ) :   0.9916 B(  6-C ,  9-H ) :   0.9714 B(  6-C , 10-H ) :   0.9755
B(  6-C , 11-H ) :   0.9786 B(  7-O ,  8-H ) :   0.9078

Dispersion correction           -0.000234460
FINAL SINGLE POINT ENERGY      -115.732111900453

DIPOLE MOMENT
-------------
                                X             Y             Z
Electronic contribution:     -1.37150      -0.20758       1.23137
Nuclear contribution   :      1.64638       0.75574      -1.68418
                        -----------------------------------------
Total Dipole Moment    :      0.27488       0.54815      -0.45281
                        -----------------------------------------
Magnitude (a.u.)       :      0.76227
Magnitude (Debye)      :      1.93755

Rotational constants in cm-1:     4.252404     0.797295     0.765839
Rotational constants in MHz : 127483.850428 23902.294301 22959.282294

                             ****ORCA TERMINATED NORMALLY****
TOTAL RUN TIME: 0 days 0 hours 0 minutes 41 seconds 602 msec
