                         Program Version 4.1.2  - RELEASE  -
|  1> #Run DFT-D3 single point of the dimer
|  2> ! wB97X-D3 def2-TZVP TIGHTSCF CHELPG PMODEL PAL8
|  3>
|  4> %base "11-184_DFT_AB"
|  5>
|  6> %scf
|  7> MaxIter 1000
|  8> end
|  9>
| 10> * xyz 0 1
| 11>   C                      -7.659629            -4.472034            5.252038
| 12>   O                      -8.518829            -4.748822            4.136675
| 13>   H                      -9.275437            -4.126430            4.062496
| 14>   H                      -6.893624            -5.275388            5.267629
| 15>   H                      -7.228614            -3.404280            5.310936
| 16>   H                      -8.259196            -4.497080            6.162074
| 17>   C                      -10.018946           -1.408965            1.870387
| 18>   O                      -10.337469           -2.526738            1.054281
| 19>   H                      -9.774385            -3.257972            1.378657
| 20>   H                      -10.655951           -1.147242            2.725710
| 21>   H                      -9.059208            -1.586892            2.320353
| 22>   H                      -9.913778            -0.568793            1.239925
| 23> *
| 24>
| 25> #Run DFT-D3 single point of the molecule with dimer basis set
| 26> $new_job
| 27> %base "11-184_DFT_A"
| 28> ! wB97X-D3 def2-TZVP TIGHTSCF CHELPG PMODEL
| 29>
| 30> %scf
| 31> MaxIter 1000
| 32> end
| 33>
| 34> * xyz 0 1
| 35>   C                      -7.659629            -4.472034            5.252038
| 36>   O                      -8.518829            -4.748822            4.136675
| 37>   H                      -9.275437            -4.126430            4.062496
| 38>   H                      -6.893624            -5.275388            5.267629
| 39>   H                      -7.228614            -3.404280            5.310936
| 40>   H                      -8.259196            -4.497080            6.162074
| 41>   C                    : -10.018946           -1.408965            1.870387
| 42>   O                    : -10.337469           -2.526738            1.054281
| 43>   H                    : -9.774385            -3.257972            1.378657
| 44>   H                    : -10.655951           -1.147242            2.725710
| 45>   H                    : -9.059208            -1.586892            2.320353
| 46>   H                    : -9.913778            -0.568793            1.239925
| 47> *
| 48>
| 49> #Run DFT-D3 single point of the particle with dimer basis set
| 50> $new_job
| 51> %base "11-184_DFT_B"
| 52> ! wB97X-D3 def2-TZVP TIGHTSCF CHELPG PMODEL
| 53>
| 54> %scf
| 55> MaxIter 1000
| 56> end
| 57>
| 58> * xyz 0 1
| 59>   C                    : -7.659629            -4.472034            5.252038
| 60>   O                    : -8.518829            -4.748822            4.136675
| 61>   H                    : -9.275437            -4.126430            4.062496
| 62>   H                    : -6.893624            -5.275388            5.267629
| 63>   H                    : -7.228614            -3.404280            5.310936
| 64>   H                    : -8.259196            -4.497080            6.162074
| 65>   C                      -10.018946           -1.408965            1.870387
| 66>   O                      -10.337469           -2.526738            1.054281
| 67>   H                      -9.774385            -3.257972            1.378657
| 68>   H                      -10.655951           -1.147242            2.725710
| 69>   H                      -9.059208            -1.586892            2.320353
| 70>   H                      -9.913778            -0.568793            1.239925
| 71> *
| 72>
| 73>                          ****END OF INPUT****
 Total Charge           Charge          ....    0
 Multiplicity           Mult            ....    1
 Number of Electrons    NEL             ....   36
Dispersion correction           -0.001307501
FINAL SINGLE POINT ENERGY      -231.463178066737
Dispersion correction           -0.000274713
FINAL SINGLE POINT ENERGY      -115.730968440513

CARTESIAN COORDINATES (ANGSTROEM)
---------------------------------
  C     -7.659629   -4.472034    5.252038
  O     -8.518829   -4.748822    4.136675
  H     -9.275437   -4.126430    4.062496
  H     -6.893624   -5.275388    5.267629
  H     -7.228614   -3.404280    5.310936
  H     -8.259196   -4.497080    6.162074
  C    -10.018946   -1.408965    1.870387
  O    -10.337469   -2.526738    1.054281
  H     -9.774385   -3.257972    1.378657
  H    -10.655951   -1.147242    2.725710
  H     -9.059208   -1.586892    2.320353
  H     -9.913778   -0.568793    1.239925

 Multiplicity           Mult            ....    1
 Number of Electrons    NEL             ....   18
 Basis Dimension        Dim             ....  172

ORBITAL ENERGIES
----------------

  NO   OCC          E(Eh)            E(eV)
   0   2.0000     -19.233230      -523.3628
   1   2.0000     -10.307442      -280.4798
   2   2.0000      -1.133127       -30.8340
   3   2.0000      -0.798139       -21.7185
   4   2.0000      -0.612521       -16.6675
   5   2.0000      -0.539060       -14.6686
   6   2.0000      -0.529960       -14.4209
   7   2.0000      -0.434802       -11.8316
   8   2.0000      -0.375473       -10.2171
   9   0.0000       0.071937         1.9575
  10   0.0000       0.113496         3.0884
  11   0.0000       0.150882         4.1057
  12   0.0000       0.175721         4.7816
  13   0.0000       0.188264         5.1229

MULLIKEN ATOMIC CHARGES
-----------------------
   0 C :    0.000005
   1 O :    0.000003
   2 H :   -0.000954
   3 H :    0.000003
   4 H :   -0.000044
   5 H :   -0.000011
   6 C :   -0.164430
   7 O :   -0.474935
   8 H :    0.318105
   9 H :    0.101681
  10 H :    0.099642
  11 H :    0.120937
Sum of atomic charges:   -0.0000000

LOEWDIN ATOMIC CHARGES
----------------------
   0 C :   -0.000120
   1 O :   -0.000275
   2 H :   -0.001304
   3 H :   -0.000002
   4 H :   -0.000053
   5 H :   -0.000001
   6 C :   -0.379744
   7 O :   -0.087368
   8 H :    0.180941
   9 H :    0.097356
  10 H :    0.093568
  11 H :    0.097003

  Mayer bond orders larger than 0.1
B(  6-C ,  7-O ) :   1.0046 B(  6-C ,  9-H ) :   0.9643 B(  6-C , 10-H ) :   0.9935
B(  6-C , 11-H ) :   0.9815 B(  7-O ,  8-H ) :   0.9008

Dispersion correction           -0.000244961
FINAL SINGLE POINT ENERGY      -115.730930663140

DIPOLE MOMENT
-------------
                                X             Y             Z
Electronic contribution:     -0.62764      -1.34442      -1.14928
Nuclear contribution   :      1.14567       1.32797       1.67323
                        -----------------------------------------
Total Dipole Moment    :      0.51803      -0.01646       0.52395
                        -----------------------------------------
Magnitude (a.u.)       :      0.73699
Magnitude (Debye)      :      1.87327

Rotational constants in cm-1:     4.442216     0.826113     0.795763
Rotational constants in MHz : 133174.294541 24766.258594 23856.385108

                             ****ORCA TERMINATED NORMALLY****
TOTAL RUN TIME: 0 days 0 hours 1 minutes 8 seconds 471 msec
