                         Program Version 4.1.2  - RELEASE  -
|  1> #Run DFT-D3 single point of the dimer
|  2> ! wB97X-D3 def2-TZVP TIGHTSCF CHELPG PMODEL PAL8
|  3>
|  4> %base "22-134_DFT_AB"
|  5>
|  6> %scf
|  7> MaxIter 1000
|  8> end
|  9>
| 10> * xyz 0 1
| 11>   C                      -9.854973            0.199510             8.305999
| 12>   O                      -11.049584           0.926030             8.206621
| 13>   H                      -11.210911           1.208514             7.307771
| 14>   H                      -9.345512            0.270205             9.273094
| 15>   H                      -9.925177            -0.857745            8.073375
| 16>   H                      -9.164374            0.696290             7.560316
| 17>   C                      -7.462364            2.881088             7.041855
| 18>   O                      -8.217421            2.731120             5.869202
| 19>   H                      -9.084535            3.069774             6.088496
| 20>   H                      -7.792425            2.232148             7.906931
| 21>   H                      -6.414661            2.636458             6.894148
| 22>   H                      -7.439216            3.915074             7.389112
| 23> *
| 24>
| 25> #Run DFT-D3 single point of the molecule with dimer basis set
| 26> $new_job
| 27> %base "22-134_DFT_A"
| 28> ! wB97X-D3 def2-TZVP TIGHTSCF CHELPG PMODEL
| 29>
| 30> %scf
| 31> MaxIter 1000
| 32> end
| 33>
| 34> * xyz 0 1
| 35>   C                      -9.854973            0.199510             8.305999
| 36>   O                      -11.049584           0.926030             8.206621
| 37>   H                      -11.210911           1.208514             7.307771
| 38>   H                      -9.345512            0.270205             9.273094
| 39>   H                      -9.925177            -0.857745            8.073375
| 40>   H                      -9.164374            0.696290             7.560316
| 41>   C                    : -7.462364            2.881088             7.041855
| 42>   O                    : -8.217421            2.731120             5.869202
| 43>   H                    : -9.084535            3.069774             6.088496
| 44>   H                    : -7.792425            2.232148             7.906931
| 45>   H                    : -6.414661            2.636458             6.894148
| 46>   H                    : -7.439216            3.915074             7.389112
| 47> *
| 48>
| 49> #Run DFT-D3 single point of the particle with dimer basis set
| 50> $new_job
| 51> %base "22-134_DFT_B"
| 52> ! wB97X-D3 def2-TZVP TIGHTSCF CHELPG PMODEL
| 53>
| 54> %scf
| 55> MaxIter 1000
| 56> end
| 57>
| 58> * xyz 0 1
| 59>   C                    : -9.854973            0.199510             8.305999
| 60>   O                    : -11.049584           0.926030             8.206621
| 61>   H                    : -11.210911           1.208514             7.307771
| 62>   H                    : -9.345512            0.270205             9.273094
| 63>   H                    : -9.925177            -0.857745            8.073375
| 64>   H                    : -9.164374            0.696290             7.560316
| 65>   C                      -7.462364            2.881088             7.041855
| 66>   O                      -8.217421            2.731120             5.869202
| 67>   H                      -9.084535            3.069774             6.088496
| 68>   H                      -7.792425            2.232148             7.906931
| 69>   H                      -6.414661            2.636458             6.894148
| 70>   H                      -7.439216            3.915074             7.389112
| 71> *
| 72>
| 73>                          ****END OF INPUT****
 Total Charge           Charge          ....    0
 Multiplicity           Mult            ....    1
 Number of Electrons    NEL             ....   36
Dispersion correction           -0.001940137
FINAL SINGLE POINT ENERGY      -231.468307226795
Dispersion correction           -0.000244994
FINAL SINGLE POINT ENERGY      -115.731744982505

CARTESIAN COORDINATES (ANGSTROEM)
---------------------------------
  C     -9.854973    0.199510    8.305999
  O    -11.049584    0.926030    8.206621
  H    -11.210911    1.208514    7.307771
  H     -9.345512    0.270205    9.273094
  H     -9.925177   -0.857745    8.073375
  H     -9.164374    0.696290    7.560316
  C     -7.462364    2.881088    7.041855
  O     -8.217421    2.731120    5.869202
  H     -9.084535    3.069774    6.088496
  H     -7.792425    2.232148    7.906931
  H     -6.414661    2.636458    6.894148
  H     -7.439216    3.915074    7.389112

 Multiplicity           Mult            ....    1
 Number of Electrons    NEL             ....   18
 Basis Dimension        Dim             ....  172

ORBITAL ENERGIES
----------------

  NO   OCC          E(Eh)            E(eV)
   0   2.0000     -19.235502      -523.4246
   1   2.0000     -10.314847      -280.6812
   2   2.0000      -1.144871       -31.1535
   3   2.0000      -0.794532       -21.6203
   4   2.0000      -0.613779       -16.7018
   5   2.0000      -0.540369       -14.7042
   6   2.0000      -0.531497       -14.4628
   7   2.0000      -0.435250       -11.8437
   8   2.0000      -0.376190       -10.2366
   9   0.0000       0.082499         2.2449
  10   0.0000       0.127955         3.4818
  11   0.0000       0.144896         3.9428
  12   0.0000       0.179420         4.8823
  13   0.0000       0.190457         5.1826

MULLIKEN ATOMIC CHARGES
-----------------------
   0 C :    0.000170
   1 O :    0.000046
   2 H :   -0.001133
   3 H :   -0.000592
   4 H :    0.000066
   5 H :   -0.000691
   6 C :   -0.180311
   7 O :   -0.461932
   8 H :    0.318780
   9 H :    0.092949
  10 H :    0.122537
  11 H :    0.110110
Sum of atomic charges:   -0.0000000

LOEWDIN ATOMIC CHARGES
----------------------
   0 C :   -0.007042
   1 O :   -0.000111
   2 H :   -0.000808
   3 H :   -0.000968
   4 H :   -0.000031
   5 H :   -0.008931
   6 C :   -0.400100
   7 O :   -0.058416
   8 H :    0.171405
   9 H :    0.104301
  10 H :    0.106676
  11 H :    0.094026

  Mayer bond orders larger than 0.1
B(  6-C ,  7-O ) :   0.9977 B(  6-C ,  9-H ) :   0.9721 B(  6-C , 10-H ) :   0.9753
B(  6-C , 11-H ) :   0.9816 B(  7-O ,  8-H ) :   0.8987

Dispersion correction           -0.000244002
FINAL SINGLE POINT ENERGY      -115.735563281177

DIPOLE MOMENT
-------------
                                X             Y             Z
Electronic contribution:     -0.92056      -0.26163      -1.71569
Nuclear contribution   :      0.68679       0.54965       2.27981
                        -----------------------------------------
Total Dipole Moment    :     -0.23377       0.28802       0.56412
                        -----------------------------------------
Magnitude (a.u.)       :      0.67515
Magnitude (Debye)      :      1.71611

Rotational constants in cm-1:     4.333820     0.831821     0.806671
Rotational constants in MHz : 129924.660970 24937.380940 24183.373442

                             ****ORCA TERMINATED NORMALLY****
TOTAL RUN TIME: 0 days 0 hours 0 minutes 56 seconds 496 msec
