                         Program Version 4.1.2  - RELEASE  -
|  1> #Run DFT-D3 single point of the dimer
|  2> ! wB97X-D3 def2-TZVP TIGHTSCF CHELPG PMODEL PAL8
|  3>
|  4> %base "22-189_DFT_AB"
|  5>
|  6> %scf
|  7> MaxIter 1000
|  8> end
|  9>
| 10> * xyz 0 1
| 11>   C                      -9.575890            -1.714717            -9.971939
| 12>   O                      -8.783560            -1.945917            -8.854113
| 13>   H                      -9.272801            -2.521201            -8.251607
| 14>   H                      -10.653452           -1.483657            -9.666511
| 15>   H                      -9.032290            -0.866566            -10.589355
| 16>   H                      -9.703653            -2.581191            -10.584015
| 17>   C                      -7.995814            -5.051933            -4.817911
| 18>   O                      -7.723852            -4.250924            -5.990596
| 19>   H                      -8.414649            -4.447234            -6.684863
| 20>   H                      -8.909583            -4.828857            -4.251161
| 21>   H                      -8.165103            -6.058626            -5.253838
| 22>   H                      -7.193328            -5.017063            -4.080825
| 23> *
| 24>
| 25> #Run DFT-D3 single point of the molecule with dimer basis set
| 26> $new_job
| 27> %base "22-189_DFT_A"
| 28> ! wB97X-D3 def2-TZVP TIGHTSCF CHELPG PMODEL
| 29>
| 30> %scf
| 31> MaxIter 1000
| 32> end
| 33>
| 34> * xyz 0 1
| 35>   C                      -9.575890            -1.714717            -9.971939
| 36>   O                      -8.783560            -1.945917            -8.854113
| 37>   H                      -9.272801            -2.521201            -8.251607
| 38>   H                      -10.653452           -1.483657            -9.666511
| 39>   H                      -9.032290            -0.866566            -10.589355
| 40>   H                      -9.703653            -2.581191            -10.584015
| 41>   C                    : -7.995814            -5.051933            -4.817911
| 42>   O                    : -7.723852            -4.250924            -5.990596
| 43>   H                    : -8.414649            -4.447234            -6.684863
| 44>   H                    : -8.909583            -4.828857            -4.251161
| 45>   H                    : -8.165103            -6.058626            -5.253838
| 46>   H                    : -7.193328            -5.017063            -4.080825
| 47> *
| 48>
| 49> #Run DFT-D3 single point of the particle with dimer basis set
| 50> $new_job
| 51> %base "22-189_DFT_B"
| 52> ! wB97X-D3 def2-TZVP TIGHTSCF CHELPG PMODEL
| 53>
| 54> %scf
| 55> MaxIter 1000
| 56> end
| 57>
| 58> * xyz 0 1
| 59>   C                    : -9.575890            -1.714717            -9.971939
| 60>   O                    : -8.783560            -1.945917            -8.854113
| 61>   H                    : -9.272801            -2.521201            -8.251607
| 62>   H                    : -10.653452           -1.483657            -9.666511
| 63>   H                    : -9.032290            -0.866566            -10.589355
| 64>   H                    : -9.703653            -2.581191            -10.584015
| 65>   C                      -7.995814            -5.051933            -4.817911
| 66>   O                      -7.723852            -4.250924            -5.990596
| 67>   H                      -8.414649            -4.447234            -6.684863
| 68>   H                      -8.909583            -4.828857            -4.251161
| 69>   H                      -8.165103            -6.058626            -5.253838
| 70>   H                      -7.193328            -5.017063            -4.080825
| 71> *
| 72>
| 73>                          ****END OF INPUT****
 Total Charge           Charge          ....    0
 Multiplicity           Mult            ....    1
 Number of Electrons    NEL             ....   36
Dispersion correction           -0.001005431
FINAL SINGLE POINT ENERGY      -231.456045271721
Dispersion correction           -0.000236863
FINAL SINGLE POINT ENERGY      -115.728521244656

CARTESIAN COORDINATES (ANGSTROEM)
---------------------------------
  C     -9.575890   -1.714717   -9.971939
  O     -8.783560   -1.945917   -8.854113
  H     -9.272801   -2.521201   -8.251607
  H    -10.653452   -1.483657   -9.666511
  H     -9.032290   -0.866566  -10.589355
  H     -9.703653   -2.581191  -10.584015
  C     -7.995814   -5.051933   -4.817911
  O     -7.723852   -4.250924   -5.990596
  H     -8.414649   -4.447234   -6.684863
  H     -8.909583   -4.828857   -4.251161
  H     -8.165103   -6.058626   -5.253838
  H     -7.193328   -5.017063   -4.080825

 Multiplicity           Mult            ....    1
 Number of Electrons    NEL             ....   18
 Basis Dimension        Dim             ....  172

ORBITAL ENERGIES
----------------

  NO   OCC          E(Eh)            E(eV)
   0   2.0000     -19.233007      -523.3567
   1   2.0000     -10.318778      -280.7882
   2   2.0000      -1.119433       -30.4613
   3   2.0000      -0.793045       -21.5799
   4   2.0000      -0.601035       -16.3550
   5   2.0000      -0.542092       -14.7511
   6   2.0000      -0.520648       -14.1676
   7   2.0000      -0.433037       -11.7835
   8   2.0000      -0.369751       -10.0614
   9   0.0000       0.082757         2.2519
  10   0.0000       0.112170         3.0523
  11   0.0000       0.146159         3.9772
  12   0.0000       0.182116         4.9556
  13   0.0000       0.194182         5.2840

MULLIKEN ATOMIC CHARGES
-----------------------
   0 C :    0.000408
   1 O :    0.000265
   2 H :   -0.003566
   3 H :   -0.000032
   4 H :    0.000007
   5 H :   -0.000033
   6 C :   -0.170345
   7 O :   -0.481323
   8 H :    0.320153
   9 H :    0.103453
  10 H :    0.104656
  11 H :    0.126356
Sum of atomic charges:   -0.0000000

LOEWDIN ATOMIC CHARGES
----------------------
   0 C :   -0.000031
   1 O :   -0.000329
   2 H :   -0.002701
   3 H :   -0.000001
   4 H :   -0.000001
   5 H :   -0.000001
   6 C :   -0.368065
   7 O :   -0.119403
   8 H :    0.189082
   9 H :    0.093355
  10 H :    0.101293
  11 H :    0.106802

  Mayer bond orders larger than 0.1
B(  6-C ,  7-O ) :   0.9963 B(  6-C ,  9-H ) :   0.9621 B(  6-C , 10-H ) :   0.9944
B(  6-C , 11-H ) :   0.9713 B(  7-O ,  8-H ) :   0.8897

Dispersion correction           -0.000256349
FINAL SINGLE POINT ENERGY      -115.729125276145

DIPOLE MOMENT
-------------
                                X             Y             Z
Electronic contribution:      0.54370       1.15545      -1.30645
Nuclear contribution   :     -1.08086      -1.61305       1.36979
                        -----------------------------------------
Total Dipole Moment    :     -0.53716      -0.45760       0.06334
                        -----------------------------------------
Magnitude (a.u.)       :      0.70848
Magnitude (Debye)      :      1.80082

Rotational constants in cm-1:     4.251829     0.800754     0.763866
Rotational constants in MHz : 127466.613458 24005.999586 22900.121401

                             ****ORCA TERMINATED NORMALLY****
TOTAL RUN TIME: 0 days 0 hours 0 minutes 57 seconds 932 msec
