                         Program Version 4.1.2  - RELEASE  -
|  1> #Run DFT-D3 single point of the dimer
|  2> ! wB97X-D3 def2-TZVP TIGHTSCF CHELPG PMODEL PAL8
|  3>
|  4> %base "19-66_DFT_AB"
|  5>
|  6> %scf
|  7> MaxIter 1000
|  8> end
|  9>
| 10> * xyz 0 1
| 11>   C                      -7.284692            9.448034             8.888117
| 12>   O                      -8.112072            10.027242            9.933787
| 13>   H                      -7.642018            10.829037            10.204778
| 14>   H                      -6.230103            9.391925             9.178771
| 15>   H                      -7.543175            8.418381             8.673947
| 16>   H                      -7.374277            10.050018            7.969878
| 17>   C                      -7.096855            8.724594             5.735688
| 18>   O                      -7.076103            8.639328             4.278514
| 19>   H                      -6.413366            8.057978             3.966894
| 20>   H                      -8.040028            9.054440             6.056530
| 21>   H                      -6.900714            7.816340             6.248448
| 22>   H                      -6.306886            9.314177             6.101824
| 23> *
| 24>
| 25> #Run DFT-D3 single point of the molecule with dimer basis set
| 26> $new_job
| 27> %base "19-66_DFT_A"
| 28> ! wB97X-D3 def2-TZVP TIGHTSCF CHELPG PMODEL
| 29>
| 30> %scf
| 31> MaxIter 1000
| 32> end
| 33>
| 34> * xyz 0 1
| 35>   C                      -7.284692            9.448034             8.888117
| 36>   O                      -8.112072            10.027242            9.933787
| 37>   H                      -7.642018            10.829037            10.204778
| 38>   H                      -6.230103            9.391925             9.178771
| 39>   H                      -7.543175            8.418381             8.673947
| 40>   H                      -7.374277            10.050018            7.969878
| 41>   C                    : -7.096855            8.724594             5.735688
| 42>   O                    : -7.076103            8.639328             4.278514
| 43>   H                    : -6.413366            8.057978             3.966894
| 44>   H                    : -8.040028            9.054440             6.056530
| 45>   H                    : -6.900714            7.816340             6.248448
| 46>   H                    : -6.306886            9.314177             6.101824
| 47> *
| 48>
| 49> #Run DFT-D3 single point of the particle with dimer basis set
| 50> $new_job
| 51> %base "19-66_DFT_B"
| 52> ! wB97X-D3 def2-TZVP TIGHTSCF CHELPG PMODEL
| 53>
| 54> %scf
| 55> MaxIter 1000
| 56> end
| 57>
| 58> * xyz 0 1
| 59>   C                    : -7.284692            9.448034             8.888117
| 60>   O                    : -8.112072            10.027242            9.933787
| 61>   H                    : -7.642018            10.829037            10.204778
| 62>   H                    : -6.230103            9.391925             9.178771
| 63>   H                    : -7.543175            8.418381             8.673947
| 64>   H                    : -7.374277            10.050018            7.969878
| 65>   C                      -7.096855            8.724594             5.735688
| 66>   O                      -7.076103            8.639328             4.278514
| 67>   H                      -6.413366            8.057978             3.966894
| 68>   H                      -8.040028            9.054440             6.056530
| 69>   H                      -6.900714            7.816340             6.248448
| 70>   H                      -6.306886            9.314177             6.101824
| 71> *
| 72>
| 73>                          ****END OF INPUT****
 Total Charge           Charge          ....    0
 Multiplicity           Mult            ....    1
 Number of Electrons    NEL             ....   36
Dispersion correction           -0.001741123
FINAL SINGLE POINT ENERGY      -231.462828164870
Dispersion correction           -0.000251047
FINAL SINGLE POINT ENERGY      -115.734778573694

CARTESIAN COORDINATES (ANGSTROEM)
---------------------------------
  C     -7.284692    9.448034    8.888117
  O     -8.112072   10.027242    9.933787
  H     -7.642018   10.829037   10.204778
  H     -6.230103    9.391925    9.178771
  H     -7.543175    8.418381    8.673947
  H     -7.374277   10.050018    7.969878
  C     -7.096855    8.724594    5.735688
  O     -7.076103    8.639328    4.278514
  H     -6.413366    8.057978    3.966894
  H     -8.040028    9.054440    6.056530
  H     -6.900714    7.816340    6.248448
  H     -6.306886    9.314177    6.101824

 Multiplicity           Mult            ....    1
 Number of Electrons    NEL             ....   18
 Basis Dimension        Dim             ....  172

ORBITAL ENERGIES
----------------

  NO   OCC          E(Eh)            E(eV)
   0   2.0000     -19.225748      -523.1592
   1   2.0000     -10.304909      -280.4108
   2   2.0000      -1.124195       -30.5909
   3   2.0000      -0.812575       -22.1113
   4   2.0000      -0.614015       -16.7082
   5   2.0000      -0.542285       -14.7563
   6   2.0000      -0.520435       -14.1618
   7   2.0000      -0.438694       -11.9375
   8   2.0000      -0.375178       -10.2091
   9   0.0000       0.082864         2.2549
  10   0.0000       0.120107         3.2683
  11   0.0000       0.147845         4.0231
  12   0.0000       0.181409         4.9364
  13   0.0000       0.186160         5.0657

MULLIKEN ATOMIC CHARGES
-----------------------
   0 C :    0.001962
   1 O :    0.000034
   2 H :   -0.000005
   3 H :    0.000123
   4 H :   -0.001477
   5 H :   -0.002892
   6 C :   -0.163724
   7 O :   -0.485061
   8 H :    0.308588
   9 H :    0.125227
  10 H :    0.106639
  11 H :    0.110585
Sum of atomic charges:   -0.0000000

LOEWDIN ATOMIC CHARGES
----------------------
   0 C :   -0.012156
   1 O :   -0.000035
   2 H :   -0.000008
   3 H :   -0.000314
   4 H :   -0.002634
   5 H :   -0.008624
   6 C :   -0.324995
   7 O :   -0.091866
   8 H :    0.146511
   9 H :    0.104779
  10 H :    0.094520
  11 H :    0.094822

  Mayer bond orders larger than 0.1
B(  6-C ,  7-O ) :   0.9975 B(  6-C ,  9-H ) :   0.9770 B(  6-C , 10-H ) :   0.9733
B(  6-C , 11-H ) :   0.9732 B(  7-O ,  8-H ) :   0.9054

Dispersion correction           -0.000260703
FINAL SINGLE POINT ENERGY      -115.729004379684

DIPOLE MOMENT
-------------
                                X             Y             Z
Electronic contribution:     -0.11996       0.01218      -1.80743
Nuclear contribution   :      0.55669      -0.37810       2.25320
                        -----------------------------------------
Total Dipole Moment    :      0.43673      -0.36592       0.44577
                        -----------------------------------------
Magnitude (a.u.)       :      0.72342
Magnitude (Debye)      :      1.83880

Rotational constants in cm-1:     4.725935     0.789326     0.759729
Rotational constants in MHz : 141679.963224 23663.386356 22776.106281

                             ****ORCA TERMINATED NORMALLY****
TOTAL RUN TIME: 0 days 0 hours 0 minutes 51 seconds 303 msec
