                         Program Version 4.1.2  - RELEASE  -
|  1> #Run DFT-D3 single point of the dimer
|  2> ! wB97X-D3 def2-TZVP TIGHTSCF CHELPG PMODEL PAL8
|  3>
|  4> %base "21-54_DFT_AB"
|  5>
|  6> %scf
|  7> MaxIter 1000
|  8> end
|  9>
| 10> * xyz 0 1
| 11>   C                      -5.021241            -8.045832            2.494545
| 12>   O                      -5.989247            -7.308026            3.203133
| 13>   H                      -6.772489            -7.218520            2.640288
| 14>   H                      -4.100609            -8.060883            3.101031
| 15>   H                      -5.262900            -9.056602            2.291049
| 16>   H                      -4.833772            -7.685138            1.454732
| 17>   C                      -8.114846            -11.179982           0.534309
| 18>   O                      -9.394486            -11.253545           1.116685
| 19>   H                      -9.334879            -11.332560           2.071275
| 20>   H                      -8.110388            -11.445938           -0.491419
| 21>   H                      -7.684400            -10.157834           0.545930
| 22>   H                      -7.398185            -11.935894           0.937221
| 23> *
| 24>
| 25> #Run DFT-D3 single point of the molecule with dimer basis set
| 26> $new_job
| 27> %base "21-54_DFT_A"
| 28> ! wB97X-D3 def2-TZVP TIGHTSCF CHELPG PMODEL
| 29>
| 30> %scf
| 31> MaxIter 1000
| 32> end
| 33>
| 34> * xyz 0 1
| 35>   C                      -5.021241            -8.045832            2.494545
| 36>   O                      -5.989247            -7.308026            3.203133
| 37>   H                      -6.772489            -7.218520            2.640288
| 38>   H                      -4.100609            -8.060883            3.101031
| 39>   H                      -5.262900            -9.056602            2.291049
| 40>   H                      -4.833772            -7.685138            1.454732
| 41>   C                    : -8.114846            -11.179982           0.534309
| 42>   O                    : -9.394486            -11.253545           1.116685
| 43>   H                    : -9.334879            -11.332560           2.071275
| 44>   H                    : -8.110388            -11.445938           -0.491419
| 45>   H                    : -7.684400            -10.157834           0.545930
| 46>   H                    : -7.398185            -11.935894           0.937221
| 47> *
| 48>
| 49> #Run DFT-D3 single point of the particle with dimer basis set
| 50> $new_job
| 51> %base "21-54_DFT_B"
| 52> ! wB97X-D3 def2-TZVP TIGHTSCF CHELPG PMODEL
| 53>
| 54> %scf
| 55> MaxIter 1000
| 56> end
| 57>
| 58> * xyz 0 1
| 59>   C                    : -5.021241            -8.045832            2.494545
| 60>   O                    : -5.989247            -7.308026            3.203133
| 61>   H                    : -6.772489            -7.218520            2.640288
| 62>   H                    : -4.100609            -8.060883            3.101031
| 63>   H                    : -5.262900            -9.056602            2.291049
| 64>   H                    : -4.833772            -7.685138            1.454732
| 65>   C                      -8.114846            -11.179982           0.534309
| 66>   O                      -9.394486            -11.253545           1.116685
| 67>   H                      -9.334879            -11.332560           2.071275
| 68>   H                      -8.110388            -11.445938           -0.491419
| 69>   H                      -7.684400            -10.157834           0.545930
| 70>   H                      -7.398185            -11.935894           0.937221
| 71> *
| 72>
| 73>                          ****END OF INPUT****
 Total Charge           Charge          ....    0
 Multiplicity           Mult            ....    1
 Number of Electrons    NEL             ....   36
Dispersion correction           -0.001006039
FINAL SINGLE POINT ENERGY      -231.467323406799
Dispersion correction           -0.000248837
FINAL SINGLE POINT ENERGY      -115.733485110157

CARTESIAN COORDINATES (ANGSTROEM)
---------------------------------
  C     -5.021241   -8.045832    2.494545
  O     -5.989247   -7.308026    3.203133
  H     -6.772489   -7.218520    2.640288
  H     -4.100609   -8.060883    3.101031
  H     -5.262900   -9.056602    2.291049
  H     -4.833772   -7.685138    1.454732
  C     -8.114846  -11.179982    0.534309
  O     -9.394486  -11.253545    1.116685
  H     -9.334879  -11.332560    2.071275
  H     -8.110388  -11.445938   -0.491419
  H     -7.684400  -10.157834    0.545930
  H     -7.398185  -11.935894    0.937221

 Multiplicity           Mult            ....    1
 Number of Electrons    NEL             ....   18
 Basis Dimension        Dim             ....  172

ORBITAL ENERGIES
----------------

  NO   OCC          E(Eh)            E(eV)
   0   2.0000     -19.231388      -523.3127
   1   2.0000     -10.312743      -280.6240
   2   2.0000      -1.136613       -30.9288
   3   2.0000      -0.799399       -21.7528
   4   2.0000      -0.611359       -16.6359
   5   2.0000      -0.542437       -14.7605
   6   2.0000      -0.530427       -14.4336
   7   2.0000      -0.424609       -11.5542
   8   2.0000      -0.376105       -10.2343
   9   0.0000       0.080864         2.2004
  10   0.0000       0.119385         3.2486
  11   0.0000       0.149917         4.0794
  12   0.0000       0.160551         4.3688
  13   0.0000       0.188449         5.1280

MULLIKEN ATOMIC CHARGES
-----------------------
   0 C :    0.000603
   1 O :   -0.000010
   2 H :   -0.000011
   3 H :   -0.000032
   4 H :   -0.001071
   5 H :   -0.000132
   6 C :   -0.168643
   7 O :   -0.475110
   8 H :    0.318588
   9 H :    0.122050
  10 H :    0.102493
  11 H :    0.101276
Sum of atomic charges:   -0.0000000

LOEWDIN ATOMIC CHARGES
----------------------
   0 C :   -0.000615
   1 O :   -0.000004
   2 H :   -0.000079
   3 H :   -0.000005
   4 H :   -0.000692
   5 H :   -0.000060
   6 C :   -0.396088
   7 O :   -0.070734
   8 H :    0.169526
   9 H :    0.099898
  10 H :    0.098177
  11 H :    0.100675

  Mayer bond orders larger than 0.1
B(  6-C ,  7-O ) :   1.0077 B(  6-C ,  9-H ) :   0.9713 B(  6-C , 10-H ) :   0.9741
B(  6-C , 11-H ) :   0.9785 B(  7-O ,  8-H ) :   0.8965

Dispersion correction           -0.000264340
FINAL SINGLE POINT ENERGY      -115.733252519077

DIPOLE MOMENT
-------------
                                X             Y             Z
Electronic contribution:     -1.79530      -0.06179       0.68290
Nuclear contribution   :      2.33216       0.01246      -0.32812
                        -----------------------------------------
Total Dipole Moment    :      0.53686      -0.04932       0.35478
                        -----------------------------------------
Magnitude (a.u.)       :      0.64539
Magnitude (Debye)      :      1.64045

Rotational constants in cm-1:     4.449048     0.817148     0.800326
Rotational constants in MHz : 133379.102736 24497.473802 23993.169389

                             ****ORCA TERMINATED NORMALLY****
TOTAL RUN TIME: 0 days 0 hours 1 minutes 4 seconds 632 msec
