                         Program Version 4.1.2  - RELEASE  -
|  1> #Run DFT-D3 single point of the dimer
|  2> ! wB97X-D3 def2-TZVP TIGHTSCF CHELPG PMODEL PAL8
|  3>
|  4> %base "1-178_DFT_AB"
|  5>
|  6> %scf
|  7> MaxIter 1000
|  8> end
|  9>
| 10> * xyz 0 1
| 11>   C                      6.321475             9.201901             5.207391
| 12>   O                      7.361675             9.472823             6.147094
| 13>   H                      8.090684             9.082047             5.642757
| 14>   H                      6.586048             8.325435             4.592221
| 15>   H                      5.453284             8.830296             5.726521
| 16>   H                      6.038527             9.983989             4.532099
| 17>   C                      9.630681             10.313985            2.765223
| 18>   O                      8.445673             10.494432            3.492279
| 19>   H                      8.506307             10.462638            4.457554
| 20>   H                      10.347231            11.146109            2.830860
| 21>   H                      10.175214            9.368767             2.986989
| 22>   H                      9.343847             10.194786            1.691725
| 23> *
| 24>
| 25> #Run DFT-D3 single point of the molecule with dimer basis set
| 26> $new_job
| 27> %base "1-178_DFT_A"
| 28> ! wB97X-D3 def2-TZVP TIGHTSCF CHELPG PMODEL
| 29>
| 30> %scf
| 31> MaxIter 1000
| 32> end
| 33>
| 34> * xyz 0 1
| 35>   C                      6.321475             9.201901             5.207391
| 36>   O                      7.361675             9.472823             6.147094
| 37>   H                      8.090684             9.082047             5.642757
| 38>   H                      6.586048             8.325435             4.592221
| 39>   H                      5.453284             8.830296             5.726521
| 40>   H                      6.038527             9.983989             4.532099
| 41>   C                    : 9.630681             10.313985            2.765223
| 42>   O                    : 8.445673             10.494432            3.492279
| 43>   H                    : 8.506307             10.462638            4.457554
| 44>   H                    : 10.347231            11.146109            2.830860
| 45>   H                    : 10.175214            9.368767             2.986989
| 46>   H                    : 9.343847             10.194786            1.691725
| 47> *
| 48>
| 49> #Run DFT-D3 single point of the particle with dimer basis set
| 50> $new_job
| 51> %base "1-178_DFT_B"
| 52> ! wB97X-D3 def2-TZVP TIGHTSCF CHELPG PMODEL
| 53>
| 54> %scf
| 55> MaxIter 1000
| 56> end
| 57>
| 58> * xyz 0 1
| 59>   C                    : 6.321475             9.201901             5.207391
| 60>   O                    : 7.361675             9.472823             6.147094
| 61>   H                    : 8.090684             9.082047             5.642757
| 62>   H                    : 6.586048             8.325435             4.592221
| 63>   H                    : 5.453284             8.830296             5.726521
| 64>   H                    : 6.038527             9.983989             4.532099
| 65>   C                      9.630681             10.313985            2.765223
| 66>   O                      8.445673             10.494432            3.492279
| 67>   H                      8.506307             10.462638            4.457554
| 68>   H                      10.347231            11.146109            2.830860
| 69>   H                      10.175214            9.368767             2.986989
| 70>   H                      9.343847             10.194786            1.691725
| 71> *
| 72>
| 73>                          ****END OF INPUT****
 Total Charge           Charge          ....    0
 Multiplicity           Mult            ....    1
 Number of Electrons    NEL             ....   36
Dispersion correction           -0.001951417
FINAL SINGLE POINT ENERGY      -231.466529267108
Dispersion correction           -0.000232900
FINAL SINGLE POINT ENERGY      -115.730168688881

CARTESIAN COORDINATES (ANGSTROEM)
---------------------------------
  C      6.321475    9.201901    5.207391
  O      7.361675    9.472823    6.147094
  H      8.090684    9.082047    5.642757
  H      6.586048    8.325435    4.592221
  H      5.453284    8.830296    5.726521
  H      6.038527    9.983989    4.532099
  C      9.630681   10.313985    2.765223
  O      8.445673   10.494432    3.492279
  H      8.506307   10.462638    4.457554
  H     10.347231   11.146109    2.830860
  H     10.175214    9.368767    2.986989
  H      9.343847   10.194786    1.691725

 Multiplicity           Mult            ....    1
 Number of Electrons    NEL             ....   18
 Basis Dimension        Dim             ....  172

ORBITAL ENERGIES
----------------

  NO   OCC          E(Eh)            E(eV)
   0   2.0000     -19.231952      -523.3280
   1   2.0000     -10.318712      -280.7864
   2   2.0000      -1.134553       -30.8728
   3   2.0000      -0.796909       -21.6850
   4   2.0000      -0.616094       -16.7648
   5   2.0000      -0.540364       -14.7040
   6   2.0000      -0.524521       -14.2729
   7   2.0000      -0.420913       -11.4536
   8   2.0000      -0.375622       -10.2212
   9   0.0000       0.084744         2.3060
  10   0.0000       0.134629         3.6634
  11   0.0000       0.151256         4.1159
  12   0.0000       0.181985         4.9521
  13   0.0000       0.190718         5.1897

MULLIKEN ATOMIC CHARGES
-----------------------
   0 C :   -0.001704
   1 O :    0.001366
   2 H :   -0.009084
   3 H :   -0.002256
   4 H :   -0.000938
   5 H :   -0.002924
   6 C :   -0.156263
   7 O :   -0.470718
   8 H :    0.319442
   9 H :    0.103040
  10 H :    0.099425
  11 H :    0.120612
Sum of atomic charges:    0.0000000

LOEWDIN ATOMIC CHARGES
----------------------
   0 C :   -0.019188
   1 O :   -0.006060
   2 H :   -0.010193
   3 H :   -0.002424
   4 H :   -0.000225
   5 H :   -0.005460
   6 C :   -0.399030
   7 O :   -0.044545
   8 H :    0.180577
   9 H :    0.094254
  10 H :    0.096740
  11 H :    0.115553

  Mayer bond orders larger than 0.1
B(  6-C ,  7-O ) :   0.9980 B(  6-C ,  9-H ) :   0.9716 B(  6-C , 10-H ) :   0.9708
B(  6-C , 11-H ) :   0.9744 B(  7-O ,  8-H ) :   0.8899

Dispersion correction           -0.000280789
FINAL SINGLE POINT ENERGY      -115.734942109270

DIPOLE MOMENT
-------------
                                X             Y             Z
Electronic contribution:     -1.57089       0.31092       0.93165
Nuclear contribution   :      2.08861      -0.40534      -0.61415
                        -----------------------------------------
Total Dipole Moment    :      0.51773      -0.09441       0.31750
                        -----------------------------------------
Magnitude (a.u.)       :      0.61462
Magnitude (Debye)      :      1.56224

Rotational constants in cm-1:     4.382196     0.818932     0.796281
Rotational constants in MHz : 131374.922225 24550.973589 23871.917075

                             ****ORCA TERMINATED NORMALLY****
TOTAL RUN TIME: 0 days 0 hours 6 minutes 0 seconds 629 msec
