                         Program Version 4.1.2  - RELEASE  -
|  1> #Run DFT-D3 single point of the dimer
|  2> ! wB97X-D3 def2-TZVP TIGHTSCF CHELPG PMODEL PAL8
|  3>
|  4> %base "1-85_DFT_AB"
|  5>
|  6> %scf
|  7> MaxIter 1000
|  8> end
|  9>
| 10> * xyz 0 1
| 11>   C                      -7.546642            5.310844             -2.485952
| 12>   O                      -6.537382            4.702897             -1.704250
| 13>   H                      -6.634103            3.799627             -2.072274
| 14>   H                      -7.343214            5.297082             -3.570693
| 15>   H                      -8.497672            4.889586             -2.433377
| 16>   H                      -7.670592            6.410111             -2.234567
| 17>   C                      -5.673843            9.678529             0.887699
| 18>   O                      -5.079798            8.484025             1.211510
| 19>   H                      -4.231268            8.659638             1.607767
| 20>   H                      -5.775124            10.359576            1.647475
| 21>   H                      -5.041630            10.146954            0.099919
| 22>   H                      -6.710823            9.493351             0.457744
| 23> *
| 24>
| 25> #Run DFT-D3 single point of the molecule with dimer basis set
| 26> $new_job
| 27> %base "1-85_DFT_A"
| 28> ! wB97X-D3 def2-TZVP TIGHTSCF CHELPG PMODEL
| 29>
| 30> %scf
| 31> MaxIter 1000
| 32> end
| 33>
| 34> * xyz 0 1
| 35>   C                      -7.546642            5.310844             -2.485952
| 36>   O                      -6.537382            4.702897             -1.704250
| 37>   H                      -6.634103            3.799627             -2.072274
| 38>   H                      -7.343214            5.297082             -3.570693
| 39>   H                      -8.497672            4.889586             -2.433377
| 40>   H                      -7.670592            6.410111             -2.234567
| 41>   C                    : -5.673843            9.678529             0.887699
| 42>   O                    : -5.079798            8.484025             1.211510
| 43>   H                    : -4.231268            8.659638             1.607767
| 44>   H                    : -5.775124            10.359576            1.647475
| 45>   H                    : -5.041630            10.146954            0.099919
| 46>   H                    : -6.710823            9.493351             0.457744
| 47> *
| 48>
| 49> #Run DFT-D3 single point of the particle with dimer basis set
| 50> $new_job
| 51> %base "1-85_DFT_B"
| 52> ! wB97X-D3 def2-TZVP TIGHTSCF CHELPG PMODEL
| 53>
| 54> %scf
| 55> MaxIter 1000
| 56> end
| 57>
| 58> * xyz 0 1
| 59>   C                    : -7.546642            5.310844             -2.485952
| 60>   O                    : -6.537382            4.702897             -1.704250
| 61>   H                    : -6.634103            3.799627             -2.072274
| 62>   H                    : -7.343214            5.297082             -3.570693
| 63>   H                    : -8.497672            4.889586             -2.433377
| 64>   H                    : -7.670592            6.410111             -2.234567
| 65>   C                      -5.673843            9.678529             0.887699
| 66>   O                      -5.079798            8.484025             1.211510
| 67>   H                      -4.231268            8.659638             1.607767
| 68>   H                      -5.775124            10.359576            1.647475
| 69>   H                      -5.041630            10.146954            0.099919
| 70>   H                      -6.710823            9.493351             0.457744
| 71> *
| 72>
| 73>                          ****END OF INPUT****
 Total Charge           Charge          ....    0
 Multiplicity           Mult            ....    1
 Number of Electrons    NEL             ....   36
Dispersion correction           -0.000607423
FINAL SINGLE POINT ENERGY      -231.457152648386
Dispersion correction           -0.000227655
FINAL SINGLE POINT ENERGY      -115.727965920212

CARTESIAN COORDINATES (ANGSTROEM)
---------------------------------
  C     -7.546642    5.310844   -2.485952
  O     -6.537382    4.702897   -1.704250
  H     -6.634103    3.799627   -2.072274
  H     -7.343214    5.297082   -3.570693
  H     -8.497672    4.889586   -2.433377
  H     -7.670592    6.410111   -2.234567
  C     -5.673843    9.678529    0.887699
  O     -5.079798    8.484025    1.211510
  H     -4.231268    8.659638    1.607767
  H     -5.775124   10.359576    1.647475
  H     -5.041630   10.146954    0.099919
  H     -6.710823    9.493351    0.457744

 Multiplicity           Mult            ....    1
 Number of Electrons    NEL             ....   18
 Basis Dimension        Dim             ....  172

ORBITAL ENERGIES
----------------

  NO   OCC          E(Eh)            E(eV)
   0   2.0000     -19.228204      -523.2260
   1   2.0000     -10.308233      -280.5013
   2   2.0000      -1.150460       -31.3056
   3   2.0000      -0.795625       -21.6501
   4   2.0000      -0.624049       -16.9812
   5   2.0000      -0.549057       -14.9406
   6   2.0000      -0.528137       -14.3713
   7   2.0000      -0.429917       -11.6986
   8   2.0000      -0.370221       -10.0742
   9   0.0000       0.091228         2.4824
  10   0.0000       0.116050         3.1579
  11   0.0000       0.153245         4.1700
  12   0.0000       0.172796         4.7020
  13   0.0000       0.188467         5.1284

MULLIKEN ATOMIC CHARGES
-----------------------
   0 C :   -0.000026
   1 O :    0.000002
   2 H :    0.000001
   3 H :   -0.000001
   4 H :   -0.000001
   5 H :   -0.000051
   6 C :   -0.153543
   7 O :   -0.467783
   8 H :    0.314827
   9 H :    0.105695
  10 H :    0.090725
  11 H :    0.110154
Sum of atomic charges:   -0.0000000

LOEWDIN ATOMIC CHARGES
----------------------
   0 C :   -0.000022
   1 O :   -0.000011
   2 H :   -0.000000
   3 H :   -0.000000
   4 H :   -0.000001
   5 H :   -0.000021
   6 C :   -0.413264
   7 O :   -0.044494
   8 H :    0.167668
   9 H :    0.075053
  10 H :    0.096996
  11 H :    0.118096

  Mayer bond orders larger than 0.1
B(  6-C ,  7-O ) :   1.0013 B(  6-C ,  9-H ) :   0.9706 B(  6-C , 10-H ) :   0.9893
B(  6-C , 11-H ) :   0.9713 B(  7-O ,  8-H ) :   0.8973

Dispersion correction           -0.000215787
FINAL SINGLE POINT ENERGY      -115.729972518598

DIPOLE MOMENT
-------------
                                X             Y             Z
Electronic contribution:      0.65915      -1.61698       0.55052
Nuclear contribution   :     -0.34108       2.18464      -0.38951
                        -----------------------------------------
Total Dipole Moment    :      0.31807       0.56766       0.16100
                        -----------------------------------------
Magnitude (a.u.)       :      0.67032
Magnitude (Debye)      :      1.70381

Rotational constants in cm-1:     4.342335     0.875375     0.837329
Rotational constants in MHz : 130179.924704 26243.085796 25102.492495

                             ****ORCA TERMINATED NORMALLY****
TOTAL RUN TIME: 0 days 0 hours 5 minutes 56 seconds 575 msec
