                         Program Version 4.1.2  - RELEASE  -
|  1> #Run DFT-D3 single point of the dimer
|  2> ! wB97X-D3 def2-TZVP TIGHTSCF CHELPG PMODEL PAL8
|  3>
|  4> %base "9-112_DFT_AB"
|  5>
|  6> %scf
|  7> MaxIter 1000
|  8> end
|  9>
| 10> * xyz 0 1
| 11>   C                      -5.982742            -6.095501            1.316982
| 12>   O                      -6.760569            -4.916011            1.577320
| 13>   H                      -6.135223            -4.206989            1.780978
| 14>   H                      -5.438071            -6.346295            2.215708
| 15>   H                      -6.528076            -6.986041            1.068226
| 16>   H                      -5.230619            -5.928635            0.561390
| 17>   C                      -5.665758            -4.689822            -2.360224
| 18>   O                      -6.884275            -4.148201            -2.717216
| 19>   H                      -7.629676            -4.652212            -2.280680
| 20>   H                      -4.944511            -4.627288            -3.154112
| 21>   H                      -5.203577            -4.051282            -1.505271
| 22>   H                      -5.827950            -5.648376            -1.913046
| 23> *
| 24>
| 25> #Run DFT-D3 single point of the molecule with dimer basis set
| 26> $new_job
| 27> %base "9-112_DFT_A"
| 28> ! wB97X-D3 def2-TZVP TIGHTSCF CHELPG PMODEL
| 29>
| 30> %scf
| 31> MaxIter 1000
| 32> end
| 33>
| 34> * xyz 0 1
| 35>   C                      -5.982742            -6.095501            1.316982
| 36>   O                      -6.760569            -4.916011            1.577320
| 37>   H                      -6.135223            -4.206989            1.780978
| 38>   H                      -5.438071            -6.346295            2.215708
| 39>   H                      -6.528076            -6.986041            1.068226
| 40>   H                      -5.230619            -5.928635            0.561390
| 41>   C                    : -5.665758            -4.689822            -2.360224
| 42>   O                    : -6.884275            -4.148201            -2.717216
| 43>   H                    : -7.629676            -4.652212            -2.280680
| 44>   H                    : -4.944511            -4.627288            -3.154112
| 45>   H                    : -5.203577            -4.051282            -1.505271
| 46>   H                    : -5.827950            -5.648376            -1.913046
| 47> *
| 48>
| 49> #Run DFT-D3 single point of the particle with dimer basis set
| 50> $new_job
| 51> %base "9-112_DFT_B"
| 52> ! wB97X-D3 def2-TZVP TIGHTSCF CHELPG PMODEL
| 53>
| 54> %scf
| 55> MaxIter 1000
| 56> end
| 57>
| 58> * xyz 0 1
| 59>   C                    : -5.982742            -6.095501            1.316982
| 60>   O                    : -6.760569            -4.916011            1.577320
| 61>   H                    : -6.135223            -4.206989            1.780978
| 62>   H                    : -5.438071            -6.346295            2.215708
| 63>   H                    : -6.528076            -6.986041            1.068226
| 64>   H                    : -5.230619            -5.928635            0.561390
| 65>   C                      -5.665758            -4.689822            -2.360224
| 66>   O                      -6.884275            -4.148201            -2.717216
| 67>   H                      -7.629676            -4.652212            -2.280680
| 68>   H                      -4.944511            -4.627288            -3.154112
| 69>   H                      -5.203577            -4.051282            -1.505271
| 70>   H                      -5.827950            -5.648376            -1.913046
| 71> *
| 72>
| 73>                          ****END OF INPUT****
 Total Charge           Charge          ....    0
 Multiplicity           Mult            ....    1
 Number of Electrons    NEL             ....   36
Dispersion correction           -0.001670764
FINAL SINGLE POINT ENERGY      -231.462862446256
Dispersion correction           -0.000237401
FINAL SINGLE POINT ENERGY      -115.733205923400

CARTESIAN COORDINATES (ANGSTROEM)
---------------------------------
  C     -5.982742   -6.095501    1.316982
  O     -6.760569   -4.916011    1.577320
  H     -6.135223   -4.206989    1.780978
  H     -5.438071   -6.346295    2.215708
  H     -6.528076   -6.986041    1.068226
  H     -5.230619   -5.928635    0.561390
  C     -5.665758   -4.689822   -2.360224
  O     -6.884275   -4.148201   -2.717216
  H     -7.629676   -4.652212   -2.280680
  H     -4.944511   -4.627288   -3.154112
  H     -5.203577   -4.051282   -1.505271
  H     -5.827950   -5.648376   -1.913046

 Multiplicity           Mult            ....    1
 Number of Electrons    NEL             ....   18
 Basis Dimension        Dim             ....  172

ORBITAL ENERGIES
----------------

  NO   OCC          E(Eh)            E(eV)
   0   2.0000     -19.231589      -523.3181
   1   2.0000     -10.312600      -280.6201
   2   2.0000      -1.139096       -30.9964
   3   2.0000      -0.788997       -21.4697
   4   2.0000      -0.616694       -16.7811
   5   2.0000      -0.544465       -14.8156
   6   2.0000      -0.527646       -14.3580
   7   2.0000      -0.432464       -11.7679
   8   2.0000      -0.362279        -9.8581
   9   0.0000       0.077112         2.0983
  10   0.0000       0.114490         3.1154
  11   0.0000       0.151214         4.1147
  12   0.0000       0.157033         4.2731
  13   0.0000       0.194352         5.2886

MULLIKEN ATOMIC CHARGES
-----------------------
   0 C :    0.003628
   1 O :    0.000166
   2 H :   -0.000095
   3 H :   -0.000170
   4 H :   -0.000467
   5 H :   -0.005444
   6 C :   -0.153745
   7 O :   -0.469848
   8 H :    0.321330
   9 H :    0.118293
  10 H :    0.082103
  11 H :    0.104248
Sum of atomic charges:   -0.0000000

LOEWDIN ATOMIC CHARGES
----------------------
   0 C :   -0.003094
   1 O :   -0.000123
   2 H :   -0.000248
   3 H :   -0.000009
   4 H :   -0.000144
   5 H :   -0.003720
   6 C :   -0.410904
   7 O :   -0.071651
   8 H :    0.195365
   9 H :    0.099252
  10 H :    0.103102
  11 H :    0.092174

  Mayer bond orders larger than 0.1
B(  6-C ,  7-O ) :   1.0170 B(  6-C ,  9-H ) :   0.9696 B(  6-C , 10-H ) :   0.9769
B(  6-C , 11-H ) :   0.9878 B(  7-O ,  8-H ) :   0.8905

Dispersion correction           -0.000235587
FINAL SINGLE POINT ENERGY      -115.727890503670

DIPOLE MOMENT
-------------
                                X             Y             Z
Electronic contribution:     -1.54044       0.63945      -0.75701
Nuclear contribution   :      1.50153      -1.19108       1.14806
                        -----------------------------------------
Total Dipole Moment    :     -0.03891      -0.55163       0.39106
                        -----------------------------------------
Magnitude (a.u.)       :      0.67730
Magnitude (Debye)      :      1.72156

Rotational constants in cm-1:     4.183952     0.864684     0.825307
Rotational constants in MHz : 125431.737186 25922.563183 24742.085584

                             ****ORCA TERMINATED NORMALLY****
TOTAL RUN TIME: 0 days 0 hours 0 minutes 43 seconds 871 msec
