                         Program Version 4.1.2  - RELEASE  -
|  1> #Run DFT-D3 single point of the dimer
|  2> ! wB97X-D3 def2-TZVP TIGHTSCF CHELPG PMODEL PAL8
|  3>
|  4> %base "3-20_DFT_AB"
|  5>
|  6> %scf
|  7> MaxIter 1000
|  8> end
|  9>
| 10> * xyz 0 1
| 11>   C                      0.141561             6.247437             4.342902
| 12>   O                      -0.671210            6.055133             5.470995
| 13>   H                      -0.143852            5.652897             6.120910
| 14>   H                      0.997028             6.871239             4.544806
| 15>   H                      0.411989             5.326716             3.898990
| 16>   H                      -0.387381            6.739469             3.540981
| 17>   C                      -5.006678            3.473235             5.282168
| 18>   O                      -3.904577            3.294647             6.106569
| 19>   H                      -3.139534            2.854562             5.646487
| 20>   H                      -5.948990            3.414311             5.817788
| 21>   H                      -4.871574            4.409236             4.792176
| 22>   H                      -5.065093            2.613388             4.563416
| 23> *
| 24>
| 25> #Run DFT-D3 single point of the molecule with dimer basis set
| 26> $new_job
| 27> %base "3-20_DFT_A"
| 28> ! wB97X-D3 def2-TZVP TIGHTSCF CHELPG PMODEL
| 29>
| 30> %scf
| 31> MaxIter 1000
| 32> end
| 33>
| 34> * xyz 0 1
| 35>   C                      0.141561             6.247437             4.342902
| 36>   O                      -0.671210            6.055133             5.470995
| 37>   H                      -0.143852            5.652897             6.120910
| 38>   H                      0.997028             6.871239             4.544806
| 39>   H                      0.411989             5.326716             3.898990
| 40>   H                      -0.387381            6.739469             3.540981
| 41>   C                    : -5.006678            3.473235             5.282168
| 42>   O                    : -3.904577            3.294647             6.106569
| 43>   H                    : -3.139534            2.854562             5.646487
| 44>   H                    : -5.948990            3.414311             5.817788
| 45>   H                    : -4.871574            4.409236             4.792176
| 46>   H                    : -5.065093            2.613388             4.563416
| 47> *
| 48>
| 49> #Run DFT-D3 single point of the particle with dimer basis set
| 50> $new_job
| 51> %base "3-20_DFT_B"
| 52> ! wB97X-D3 def2-TZVP TIGHTSCF CHELPG PMODEL
| 53>
| 54> %scf
| 55> MaxIter 1000
| 56> end
| 57>
| 58> * xyz 0 1
| 59>   C                    : 0.141561             6.247437             4.342902
| 60>   O                    : -0.671210            6.055133             5.470995
| 61>   H                    : -0.143852            5.652897             6.120910
| 62>   H                    : 0.997028             6.871239             4.544806
| 63>   H                    : 0.411989             5.326716             3.898990
| 64>   H                    : -0.387381            6.739469             3.540981
| 65>   C                      -5.006678            3.473235             5.282168
| 66>   O                      -3.904577            3.294647             6.106569
| 67>   H                      -3.139534            2.854562             5.646487
| 68>   H                      -5.948990            3.414311             5.817788
| 69>   H                      -4.871574            4.409236             4.792176
| 70>   H                      -5.065093            2.613388             4.563416
| 71> *
| 72>
| 73>                          ****END OF INPUT****
 Total Charge           Charge          ....    0
 Multiplicity           Mult            ....    1
 Number of Electrons    NEL             ....   36
Dispersion correction           -0.000734525
FINAL SINGLE POINT ENERGY      -231.464083677877
Dispersion correction           -0.000225441
FINAL SINGLE POINT ENERGY      -115.733721836342

CARTESIAN COORDINATES (ANGSTROEM)
---------------------------------
  C      0.141561    6.247437    4.342902
  O     -0.671210    6.055133    5.470995
  H     -0.143852    5.652897    6.120910
  H      0.997028    6.871239    4.544806
  H      0.411989    5.326716    3.898990
  H     -0.387381    6.739469    3.540981
  C     -5.006678    3.473235    5.282168
  O     -3.904577    3.294647    6.106569
  H     -3.139534    2.854562    5.646487
  H     -5.948990    3.414311    5.817788
  H     -4.871574    4.409236    4.792176
  H     -5.065093    2.613388    4.563416

 Multiplicity           Mult            ....    1
 Number of Electrons    NEL             ....   18
 Basis Dimension        Dim             ....  172

ORBITAL ENERGIES
----------------

  NO   OCC          E(Eh)            E(eV)
   0   2.0000     -19.226698      -523.1850
   1   2.0000     -10.309390      -280.5328
   2   2.0000      -1.133397       -30.8413
   3   2.0000      -0.792314       -21.5600
   4   2.0000      -0.606774       -16.5112
   5   2.0000      -0.555651       -15.1200
   6   2.0000      -0.529257       -14.4018
   7   2.0000      -0.416518       -11.3340
   8   2.0000      -0.370214       -10.0740
   9   0.0000       0.083556         2.2737
  10   0.0000       0.111994         3.0475
  11   0.0000       0.154618         4.2074
  12   0.0000       0.171003         4.6532
  13   0.0000       0.190347         5.1796

MULLIKEN ATOMIC CHARGES
-----------------------
   0 C :   -0.000216
   1 O :   -0.000134
   2 H :   -0.000145
   3 H :   -0.000000
   4 H :    0.000015
   5 H :    0.000016
   6 C :   -0.143046
   7 O :   -0.492991
   8 H :    0.324323
   9 H :    0.115132
  10 H :    0.104997
  11 H :    0.092049
Sum of atomic charges:    0.0000000

LOEWDIN ATOMIC CHARGES
----------------------
   0 C :   -0.000062
   1 O :   -0.000214
   2 H :   -0.000133
   3 H :   -0.000002
   4 H :   -0.000004
   5 H :   -0.000001
   6 C :   -0.400880
   7 O :   -0.083153
   8 H :    0.190421
   9 H :    0.104161
  10 H :    0.090479
  11 H :    0.099389

  Mayer bond orders larger than 0.1
B(  6-C ,  7-O ) :   0.9952 B(  6-C ,  9-H ) :   0.9678 B(  6-C , 10-H ) :   0.9815
B(  6-C , 11-H ) :   0.9879 B(  7-O ,  8-H ) :   0.8861

Dispersion correction           -0.000230563
FINAL SINGLE POINT ENERGY      -115.730534487102

DIPOLE MOMENT
-------------
                                X             Y             Z
Electronic contribution:      1.28371      -0.06766       1.17749
Nuclear contribution   :     -1.23603      -0.15966      -1.79175
                        -----------------------------------------
Total Dipole Moment    :      0.04768      -0.22732      -0.61426
                        -----------------------------------------
Magnitude (a.u.)       :      0.65671
Magnitude (Debye)      :      1.66922

Rotational constants in cm-1:     4.270333     0.851932     0.827406
Rotational constants in MHz : 128021.369852 25540.270240 24805.020322

                             ****ORCA TERMINATED NORMALLY****
TOTAL RUN TIME: 0 days 0 hours 6 minutes 13 seconds 974 msec
