                         Program Version 4.1.2  - RELEASE  -
|  1> #Run DFT-D3 single point of the dimer
|  2> ! wB97X-D3 def2-TZVP TIGHTSCF CHELPG PMODEL PAL8
|  3>
|  4> %base "9-173_DFT_AB"
|  5>
|  6> %scf
|  7> MaxIter 1000
|  8> end
|  9>
| 10> * xyz 0 1
| 11>   C                      7.552119             9.311828             7.302262
| 12>   O                      8.424865             8.236873             7.635050
| 13>   H                      8.038297             7.903594             8.514994
| 14>   H                      6.469145             9.194875             7.344775
| 15>   H                      7.737204             10.092626            8.002545
| 16>   H                      7.867313             9.844927             6.504650
| 17>   C                      6.560665             8.212266             10.896458
| 18>   O                      7.783011             7.625033             10.420270
| 19>   H                      7.846205             6.659456             10.612985
| 20>   H                      6.405019             9.289219             10.590854
| 21>   H                      5.728525             7.569283             10.618399
| 22>   H                      6.543258             8.373874             11.963298
| 23> *
| 24>
| 25> #Run DFT-D3 single point of the molecule with dimer basis set
| 26> $new_job
| 27> %base "9-173_DFT_A"
| 28> ! wB97X-D3 def2-TZVP TIGHTSCF CHELPG PMODEL
| 29>
| 30> %scf
| 31> MaxIter 1000
| 32> end
| 33>
| 34> * xyz 0 1
| 35>   C                      7.552119             9.311828             7.302262
| 36>   O                      8.424865             8.236873             7.635050
| 37>   H                      8.038297             7.903594             8.514994
| 38>   H                      6.469145             9.194875             7.344775
| 39>   H                      7.737204             10.092626            8.002545
| 40>   H                      7.867313             9.844927             6.504650
| 41>   C                    : 6.560665             8.212266             10.896458
| 42>   O                    : 7.783011             7.625033             10.420270
| 43>   H                    : 7.846205             6.659456             10.612985
| 44>   H                    : 6.405019             9.289219             10.590854
| 45>   H                    : 5.728525             7.569283             10.618399
| 46>   H                    : 6.543258             8.373874             11.963298
| 47> *
| 48>
| 49> #Run DFT-D3 single point of the particle with dimer basis set
| 50> $new_job
| 51> %base "9-173_DFT_B"
| 52> ! wB97X-D3 def2-TZVP TIGHTSCF CHELPG PMODEL
| 53>
| 54> %scf
| 55> MaxIter 1000
| 56> end
| 57>
| 58> * xyz 0 1
| 59>   C                    : 7.552119             9.311828             7.302262
| 60>   O                    : 8.424865             8.236873             7.635050
| 61>   H                    : 8.038297             7.903594             8.514994
| 62>   H                    : 6.469145             9.194875             7.344775
| 63>   H                    : 7.737204             10.092626            8.002545
| 64>   H                    : 7.867313             9.844927             6.504650
| 65>   C                      6.560665             8.212266             10.896458
| 66>   O                      7.783011             7.625033             10.420270
| 67>   H                      7.846205             6.659456             10.612985
| 68>   H                      6.405019             9.289219             10.590854
| 69>   H                      5.728525             7.569283             10.618399
| 70>   H                      6.543258             8.373874             11.963298
| 71> *
| 72>
| 73>                          ****END OF INPUT****
 Total Charge           Charge          ....    0
 Multiplicity           Mult            ....    1
 Number of Electrons    NEL             ....   36
Dispersion correction           -0.002041865
FINAL SINGLE POINT ENERGY      -231.455885726223
Dispersion correction           -0.000236074
FINAL SINGLE POINT ENERGY      -115.717774765712

CARTESIAN COORDINATES (ANGSTROEM)
---------------------------------
  C      7.552119    9.311828    7.302262
  O      8.424865    8.236873    7.635050
  H      8.038297    7.903594    8.514994
  H      6.469145    9.194875    7.344775
  H      7.737204   10.092626    8.002545
  H      7.867313    9.844927    6.504650
  C      6.560665    8.212266   10.896458
  O      7.783011    7.625033   10.420270
  H      7.846205    6.659456   10.612985
  H      6.405019    9.289219   10.590854
  H      5.728525    7.569283   10.618399
  H      6.543258    8.373874   11.963298

 Multiplicity           Mult            ....    1
 Number of Electrons    NEL             ....   18
 Basis Dimension        Dim             ....  172

ORBITAL ENERGIES
----------------

  NO   OCC          E(Eh)            E(eV)
   0   2.0000     -19.232177      -523.3342
   1   2.0000     -10.317539      -280.7545
   2   2.0000      -1.121742       -30.5242
   3   2.0000      -0.796832       -21.6829
   4   2.0000      -0.604942       -16.4613
   5   2.0000      -0.548113       -14.9149
   6   2.0000      -0.516704       -14.0602
   7   2.0000      -0.425733       -11.5848
   8   2.0000      -0.372690       -10.1414
   9   0.0000       0.095955         2.6111
  10   0.0000       0.121939         3.3181
  11   0.0000       0.146581         3.9887
  12   0.0000       0.188954         5.1417
  13   0.0000       0.201949         5.4953

MULLIKEN ATOMIC CHARGES
-----------------------
   0 C :    0.004835
   1 O :    0.001162
   2 H :   -0.016645
   3 H :   -0.000931
   4 H :   -0.001041
   5 H :   -0.000007
   6 C :   -0.167954
   7 O :   -0.485213
   8 H :    0.322039
   9 H :    0.122339
  10 H :    0.111621
  11 H :    0.109795
Sum of atomic charges:    0.0000000

LOEWDIN ATOMIC CHARGES
----------------------
   0 C :   -0.002979
   1 O :   -0.005064
   2 H :   -0.046157
   3 H :   -0.000338
   4 H :   -0.000593
   5 H :   -0.000023
   6 C :   -0.372301
   7 O :   -0.064241
   8 H :    0.183429
   9 H :    0.118849
  10 H :    0.096491
  11 H :    0.092927

  Mayer bond orders larger than 0.1
B(  6-C ,  7-O ) :   0.9828 B(  6-C ,  9-H ) :   0.9724 B(  6-C , 10-H ) :   0.9827
B(  6-C , 11-H ) :   0.9666 B(  7-O ,  8-H ) :   0.8866

Dispersion correction           -0.000270903
FINAL SINGLE POINT ENERGY      -115.729378205101

DIPOLE MOMENT
-------------
                                X             Y             Z
Electronic contribution:      1.57491      -0.66935      -0.69993
Nuclear contribution   :     -2.05156       0.31139       1.05243
                        -----------------------------------------
Total Dipole Moment    :     -0.47665      -0.35795       0.35250
                        -----------------------------------------
Magnitude (a.u.)       :      0.69252
Magnitude (Debye)      :      1.76025

Rotational constants in cm-1:     4.386791     0.797282     0.763632
Rotational constants in MHz : 131512.673831 23901.910441 22893.108311

                             ****ORCA TERMINATED NORMALLY****
TOTAL RUN TIME: 0 days 0 hours 0 minutes 48 seconds 703 msec
