                         Program Version 4.1.2  - RELEASE  -
|  1> #Run DFT-D3 single point of the dimer
|  2> ! wB97X-D3 def2-TZVP TIGHTSCF CHELPG PMODEL PAL8
|  3>
|  4> %base "13-48_DFT_AB"
|  5>
|  6> %scf
|  7> MaxIter 1000
|  8> end
|  9>
| 10> * xyz 0 1
| 11>   C                      8.962663             8.231957             5.425827
| 12>   O                      9.949730             9.224172             5.452284
| 13>   H                      10.724420            8.779643             5.024574
| 14>   H                      9.107767             7.617741             6.368248
| 15>   H                      7.926964             8.624352             5.397204
| 16>   H                      9.010763             7.567590             4.507931
| 17>   C                      9.723007             9.092948             10.772402
| 18>   O                      9.506374             9.265181             12.187489
| 19>   H                      10.315875            9.675882             12.602802
| 20>   H                      9.090216             8.272942             10.294978
| 21>   H                      9.466710             9.958653             10.261986
| 22>   H                      10.735242            8.681855             10.494282
| 23> *
| 24>
| 25> #Run DFT-D3 single point of the molecule with dimer basis set
| 26> $new_job
| 27> %base "13-48_DFT_A"
| 28> ! wB97X-D3 def2-TZVP TIGHTSCF CHELPG PMODEL
| 29>
| 30> %scf
| 31> MaxIter 1000
| 32> end
| 33>
| 34> * xyz 0 1
| 35>   C                      8.962663             8.231957             5.425827
| 36>   O                      9.949730             9.224172             5.452284
| 37>   H                      10.724420            8.779643             5.024574
| 38>   H                      9.107767             7.617741             6.368248
| 39>   H                      7.926964             8.624352             5.397204
| 40>   H                      9.010763             7.567590             4.507931
| 41>   C                    : 9.723007             9.092948             10.772402
| 42>   O                    : 9.506374             9.265181             12.187489
| 43>   H                    : 10.315875            9.675882             12.602802
| 44>   H                    : 9.090216             8.272942             10.294978
| 45>   H                    : 9.466710             9.958653             10.261986
| 46>   H                    : 10.735242            8.681855             10.494282
| 47> *
| 48>
| 49> #Run DFT-D3 single point of the particle with dimer basis set
| 50> $new_job
| 51> %base "13-48_DFT_B"
| 52> ! wB97X-D3 def2-TZVP TIGHTSCF CHELPG PMODEL
| 53>
| 54> %scf
| 55> MaxIter 1000
| 56> end
| 57>
| 58> * xyz 0 1
| 59>   C                    : 8.962663             8.231957             5.425827
| 60>   O                    : 9.949730             9.224172             5.452284
| 61>   H                    : 10.724420            8.779643             5.024574
| 62>   H                    : 9.107767             7.617741             6.368248
| 63>   H                    : 7.926964             8.624352             5.397204
| 64>   H                    : 9.010763             7.567590             4.507931
| 65>   C                      9.723007             9.092948             10.772402
| 66>   O                      9.506374             9.265181             12.187489
| 67>   H                      10.315875            9.675882             12.602802
| 68>   H                      9.090216             8.272942             10.294978
| 69>   H                      9.466710             9.958653             10.261986
| 70>   H                      10.735242            8.681855             10.494282
| 71> *
| 72>
| 73>                          ****END OF INPUT****
 Total Charge           Charge          ....    0
 Multiplicity           Mult            ....    1
 Number of Electrons    NEL             ....   36
Dispersion correction           -0.000721516
FINAL SINGLE POINT ENERGY      -231.457354623984
Dispersion correction           -0.000239272
FINAL SINGLE POINT ENERGY      -115.730591596633

CARTESIAN COORDINATES (ANGSTROEM)
---------------------------------
  C      8.962663    8.231957    5.425827
  O      9.949730    9.224172    5.452284
  H     10.724420    8.779643    5.024574
  H      9.107767    7.617741    6.368248
  H      7.926964    8.624352    5.397204
  H      9.010763    7.567590    4.507931
  C      9.723007    9.092948   10.772402
  O      9.506374    9.265181   12.187489
  H     10.315875    9.675882   12.602802
  H      9.090216    8.272942   10.294978
  H      9.466710    9.958653   10.261986
  H     10.735242    8.681855   10.494282

 Multiplicity           Mult            ....    1
 Number of Electrons    NEL             ....   18
 Basis Dimension        Dim             ....  172

ORBITAL ENERGIES
----------------

  NO   OCC          E(Eh)            E(eV)
   0   2.0000     -19.234766      -523.4046
   1   2.0000     -10.317550      -280.7548
   2   2.0000      -1.120194       -30.4820
   3   2.0000      -0.795026       -21.6338
   4   2.0000      -0.599100       -16.3023
   5   2.0000      -0.549803       -14.9609
   6   2.0000      -0.516168       -14.0456
   7   2.0000      -0.421488       -11.4693
   8   2.0000      -0.378064       -10.2877
   9   0.0000       0.082614         2.2480
  10   0.0000       0.112655         3.0655
  11   0.0000       0.138498         3.7687
  12   0.0000       0.164116         4.4658
  13   0.0000       0.191829         5.2199

MULLIKEN ATOMIC CHARGES
-----------------------
   0 C :    0.000030
   1 O :   -0.000003
   2 H :   -0.000001
   3 H :   -0.000059
   4 H :   -0.000003
   5 H :   -0.000000
   6 C :   -0.171707
   7 O :   -0.485472
   8 H :    0.321733
   9 H :    0.113576
  10 H :    0.118993
  11 H :    0.102913
Sum of atomic charges:   -0.0000000

LOEWDIN ATOMIC CHARGES
----------------------
   0 C :   -0.000023
   1 O :   -0.000003
   2 H :   -0.000000
   3 H :   -0.000055
   4 H :   -0.000001
   5 H :   -0.000001
   6 C :   -0.377037
   7 O :   -0.114617
   8 H :    0.190008
   9 H :    0.116339
  10 H :    0.082841
  11 H :    0.102548

  Mayer bond orders larger than 0.1
B(  6-C ,  7-O ) :   1.0019 B(  6-C ,  9-H ) :   0.9706 B(  6-C , 10-H ) :   0.9765
B(  6-C , 11-H ) :   0.9757 B(  7-O ,  8-H ) :   0.8898

Dispersion correction           -0.000280699
FINAL SINGLE POINT ENERGY      -115.726352134278

DIPOLE MOMENT
-------------
                                X             Y             Z
Electronic contribution:     -0.39750       0.32382       1.84611
Nuclear contribution   :      0.99120      -0.14314      -2.17843
                        -----------------------------------------
Total Dipole Moment    :      0.59370       0.18068      -0.33232
                        -----------------------------------------
Magnitude (a.u.)       :      0.70396
Magnitude (Debye)      :      1.78933

Rotational constants in cm-1:     4.341823     0.786448     0.763996
Rotational constants in MHz : 130164.578558 23577.105006 22904.033534

                             ****ORCA TERMINATED NORMALLY****
TOTAL RUN TIME: 0 days 0 hours 1 minutes 6 seconds 323 msec
