                         Program Version 4.1.2  - RELEASE  -
|  1> #Run DFT-D3 single point of the dimer
|  2> ! wB97X-D3 def2-TZVP TIGHTSCF CHELPG PMODEL PAL8
|  3>
|  4> %base "13-193_DFT_AB"
|  5>
|  6> %scf
|  7> MaxIter 1000
|  8> end
|  9>
| 10> * xyz 0 1
| 11>   C                      10.360411            1.351728             -2.768498
| 12>   O                      9.480040             2.425888             -2.943483
| 13>   H                      8.786266             2.096942             -3.479795
| 14>   H                      11.317643            1.730612             -2.411997
| 15>   H                      9.976586             0.482140             -2.219408
| 16>   H                      10.564958            0.920974             -3.793608
| 17>   C                      11.182088            4.718349             -0.631126
| 18>   O                      11.233186            4.667703             -2.053851
| 19>   H                      10.467183            4.205962             -2.305741
| 20>   H                      10.332386            5.393297             -0.336643
| 21>   H                      11.164928            3.713559             -0.111626
| 22>   H                      12.155194            5.093004             -0.306110
| 23> *
| 24>
| 25> #Run DFT-D3 single point of the molecule with dimer basis set
| 26> $new_job
| 27> %base "13-193_DFT_A"
| 28> ! wB97X-D3 def2-TZVP TIGHTSCF CHELPG PMODEL
| 29>
| 30> %scf
| 31> MaxIter 1000
| 32> end
| 33>
| 34> * xyz 0 1
| 35>   C                      10.360411            1.351728             -2.768498
| 36>   O                      9.480040             2.425888             -2.943483
| 37>   H                      8.786266             2.096942             -3.479795
| 38>   H                      11.317643            1.730612             -2.411997
| 39>   H                      9.976586             0.482140             -2.219408
| 40>   H                      10.564958            0.920974             -3.793608
| 41>   C                    : 11.182088            4.718349             -0.631126
| 42>   O                    : 11.233186            4.667703             -2.053851
| 43>   H                    : 10.467183            4.205962             -2.305741
| 44>   H                    : 10.332386            5.393297             -0.336643
| 45>   H                    : 11.164928            3.713559             -0.111626
| 46>   H                    : 12.155194            5.093004             -0.306110
| 47> *
| 48>
| 49> #Run DFT-D3 single point of the particle with dimer basis set
| 50> $new_job
| 51> %base "13-193_DFT_B"
| 52> ! wB97X-D3 def2-TZVP TIGHTSCF CHELPG PMODEL
| 53>
| 54> %scf
| 55> MaxIter 1000
| 56> end
| 57>
| 58> * xyz 0 1
| 59>   C                    : 10.360411            1.351728             -2.768498
| 60>   O                    : 9.480040             2.425888             -2.943483
| 61>   H                    : 8.786266             2.096942             -3.479795
| 62>   H                    : 11.317643            1.730612             -2.411997
| 63>   H                    : 9.976586             0.482140             -2.219408
| 64>   H                    : 10.564958            0.920974             -3.793608
| 65>   C                      11.182088            4.718349             -0.631126
| 66>   O                      11.233186            4.667703             -2.053851
| 67>   H                      10.467183            4.205962             -2.305741
| 68>   H                      10.332386            5.393297             -0.336643
| 69>   H                      11.164928            3.713559             -0.111626
| 70>   H                      12.155194            5.093004             -0.306110
| 71> *
| 72>
| 73>                          ****END OF INPUT****
 Total Charge           Charge          ....    0
 Multiplicity           Mult            ....    1
 Number of Electrons    NEL             ....   36
Dispersion correction           -0.001892835
FINAL SINGLE POINT ENERGY      -231.473025119647
Dispersion correction           -0.000226460
FINAL SINGLE POINT ENERGY      -115.732764028060

CARTESIAN COORDINATES (ANGSTROEM)
---------------------------------
  C     10.360411    1.351728   -2.768498
  O      9.480040    2.425888   -2.943483
  H      8.786266    2.096942   -3.479795
  H     11.317643    1.730612   -2.411997
  H      9.976586    0.482140   -2.219408
  H     10.564958    0.920974   -3.793608
  C     11.182088    4.718349   -0.631126
  O     11.233186    4.667703   -2.053851
  H     10.467183    4.205962   -2.305741
  H     10.332386    5.393297   -0.336643
  H     11.164928    3.713559   -0.111626
  H     12.155194    5.093004   -0.306110

 Multiplicity           Mult            ....    1
 Number of Electrons    NEL             ....   18
 Basis Dimension        Dim             ....  172

ORBITAL ENERGIES
----------------

  NO   OCC          E(Eh)            E(eV)
   0   2.0000     -19.230465      -523.2876
   1   2.0000     -10.321219      -280.8547
   2   2.0000      -1.142968       -31.1017
   3   2.0000      -0.793279       -21.5862
   4   2.0000      -0.608150       -16.5486
   5   2.0000      -0.549506       -14.9528
   6   2.0000      -0.518173       -14.1002
   7   2.0000      -0.435452       -11.8493
   8   2.0000      -0.377875       -10.2825
   9   0.0000       0.075896         2.0652
  10   0.0000       0.134398         3.6572
  11   0.0000       0.144887         3.9426
  12   0.0000       0.171086         4.6555
  13   0.0000       0.187565         5.1039

MULLIKEN ATOMIC CHARGES
-----------------------
   0 C :   -0.002960
   1 O :   -0.002115
   2 H :   -0.000219
   3 H :   -0.004822
   4 H :   -0.000120
   5 H :    0.000097
   6 C :   -0.178887
   7 O :   -0.451891
   8 H :    0.307278
   9 H :    0.111323
  10 H :    0.103285
  11 H :    0.119030
Sum of atomic charges:    0.0000000

LOEWDIN ATOMIC CHARGES
----------------------
   0 C :   -0.006534
   1 O :   -0.012067
   2 H :   -0.000540
   3 H :   -0.004017
   4 H :   -0.000072
   5 H :   -0.000071
   6 C :   -0.386212
   7 O :   -0.054555
   8 H :    0.151228
   9 H :    0.103279
  10 H :    0.101618
  11 H :    0.107943

  Mayer bond orders larger than 0.1
B(  6-C ,  7-O ) :   0.9967 B(  6-C ,  9-H ) :   0.9788 B(  6-C , 10-H ) :   0.9641
B(  6-C , 11-H ) :   0.9760 B(  7-O ,  8-H ) :   0.9128

Dispersion correction           -0.000245575
FINAL SINGLE POINT ENERGY      -115.732834025396

DIPOLE MOMENT
-------------
                                X             Y             Z
Electronic contribution:      0.12344       0.02565      -1.81890
Nuclear contribution   :     -0.59426      -0.28873       2.21631
                        -----------------------------------------
Total Dipole Moment    :     -0.47082      -0.26308       0.39741
                        -----------------------------------------
Magnitude (a.u.)       :      0.66993
Magnitude (Debye)      :      1.70284

Rotational constants in cm-1:     4.151162     0.819526     0.800727
Rotational constants in MHz : 124448.700962 24568.764884 24005.177767

                             ****ORCA TERMINATED NORMALLY****
TOTAL RUN TIME: 0 days 0 hours 1 minutes 10 seconds 985 msec
