                         Program Version 4.1.2  - RELEASE  -
|  1> #Run DFT-D3 single point of the dimer
|  2> ! wB97X-D3 def2-TZVP TIGHTSCF CHELPG PMODEL PAL8
|  3>
|  4> %base "15-180_DFT_AB"
|  5>
|  6> %scf
|  7> MaxIter 1000
|  8> end
|  9>
| 10> * xyz 0 1
| 11>   C                      0.577342             8.286108             -6.879825
| 12>   O                      -0.082059            7.315492             -6.092842
| 13>   H                      -0.200547            6.592440             -6.761152
| 14>   H                      1.445892             7.839362             -7.293645
| 15>   H                      0.031159             8.724131             -7.716760
| 16>   H                      0.959594             9.097686             -6.252328
| 17>   C                      -0.006832            3.853463             -7.966640
| 18>   O                      -0.824736            5.055972             -7.772657
| 19>   H                      -1.508435            5.136356             -8.502662
| 20>   H                      -0.752204            2.974908             -7.745483
| 21>   H                      0.258344             3.885445             -8.983792
| 22>   H                      0.743704             3.872815             -7.229837
| 23> *
| 24>
| 25> #Run DFT-D3 single point of the molecule with dimer basis set
| 26> $new_job
| 27> %base "15-180_DFT_A"
| 28> ! wB97X-D3 def2-TZVP TIGHTSCF CHELPG PMODEL
| 29>
| 30> %scf
| 31> MaxIter 1000
| 32> end
| 33>
| 34> * xyz 0 1
| 35>   C                      0.577342             8.286108             -6.879825
| 36>   O                      -0.082059            7.315492             -6.092842
| 37>   H                      -0.200547            6.592440             -6.761152
| 38>   H                      1.445892             7.839362             -7.293645
| 39>   H                      0.031159             8.724131             -7.716760
| 40>   H                      0.959594             9.097686             -6.252328
| 41>   C                    : -0.006832            3.853463             -7.966640
| 42>   O                    : -0.824736            5.055972             -7.772657
| 43>   H                    : -1.508435            5.136356             -8.502662
| 44>   H                    : -0.752204            2.974908             -7.745483
| 45>   H                    : 0.258344             3.885445             -8.983792
| 46>   H                    : 0.743704             3.872815             -7.229837
| 47> *
| 48>
| 49> #Run DFT-D3 single point of the particle with dimer basis set
| 50> $new_job
| 51> %base "15-180_DFT_B"
| 52> ! wB97X-D3 def2-TZVP TIGHTSCF CHELPG PMODEL
| 53>
| 54> %scf
| 55> MaxIter 1000
| 56> end
| 57>
| 58> * xyz 0 1
| 59>   C                    : 0.577342             8.286108             -6.879825
| 60>   O                    : -0.082059            7.315492             -6.092842
| 61>   H                    : -0.200547            6.592440             -6.761152
| 62>   H                    : 1.445892             7.839362             -7.293645
| 63>   H                    : 0.031159             8.724131             -7.716760
| 64>   H                    : 0.959594             9.097686             -6.252328
| 65>   C                      -0.006832            3.853463             -7.966640
| 66>   O                      -0.824736            5.055972             -7.772657
| 67>   H                      -1.508435            5.136356             -8.502662
| 68>   H                      -0.752204            2.974908             -7.745483
| 69>   H                      0.258344             3.885445             -8.983792
| 70>   H                      0.743704             3.872815             -7.229837
| 71> *
| 72>
| 73>                          ****END OF INPUT****
 Total Charge           Charge          ....    0
 Multiplicity           Mult            ....    1
 Number of Electrons    NEL             ....   36
Dispersion correction           -0.001604856
FINAL SINGLE POINT ENERGY      -231.465200768720
Dispersion correction           -0.000224171
FINAL SINGLE POINT ENERGY      -115.731916947021

CARTESIAN COORDINATES (ANGSTROEM)
---------------------------------
  C      0.577342    8.286108   -6.879825
  O     -0.082059    7.315492   -6.092842
  H     -0.200547    6.592440   -6.761152
  H      1.445892    7.839362   -7.293645
  H      0.031159    8.724131   -7.716760
  H      0.959594    9.097686   -6.252328
  C     -0.006832    3.853463   -7.966640
  O     -0.824736    5.055972   -7.772657
  H     -1.508435    5.136356   -8.502662
  H     -0.752204    2.974908   -7.745483
  H      0.258344    3.885445   -8.983792
  H      0.743704    3.872815   -7.229837

 Multiplicity           Mult            ....    1
 Number of Electrons    NEL             ....   18
 Basis Dimension        Dim             ....  172

ORBITAL ENERGIES
----------------

  NO   OCC          E(Eh)            E(eV)
   0   2.0000     -19.225233      -523.1452
   1   2.0000     -10.318157      -280.7713
   2   2.0000      -1.109148       -30.1815
   3   2.0000      -0.793492       -21.5920
   4   2.0000      -0.595612       -16.2074
   5   2.0000      -0.540346       -14.7036
   6   2.0000      -0.526534       -14.3277
   7   2.0000      -0.429992       -11.7007
   8   2.0000      -0.365535        -9.9467
   9   0.0000       0.095264         2.5923
  10   0.0000       0.120319         3.2741
  11   0.0000       0.153065         4.1651
  12   0.0000       0.188045         5.1170
  13   0.0000       0.191907         5.2220

MULLIKEN ATOMIC CHARGES
-----------------------
   0 C :   -0.001683
   1 O :    0.000241
   2 H :   -0.006761
   3 H :   -0.001043
   4 H :   -0.000517
   5 H :   -0.000345
   6 C :   -0.150839
   7 O :   -0.497268
   8 H :    0.312208
   9 H :    0.099177
  10 H :    0.116592
  11 H :    0.130237
Sum of atomic charges:    0.0000000

LOEWDIN ATOMIC CHARGES
----------------------
   0 C :   -0.003560
   1 O :   -0.004729
   2 H :   -0.043227
   3 H :   -0.000397
   4 H :   -0.000285
   5 H :   -0.000077
   6 C :   -0.330917
   7 O :   -0.102323
   8 H :    0.184428
   9 H :    0.112250
  10 H :    0.089808
  11 H :    0.099029

  Mayer bond orders larger than 0.1
B(  6-C ,  7-O ) :   0.9699 B(  6-C ,  9-H ) :   0.9769 B(  6-C , 10-H ) :   0.9775
B(  6-C , 11-H ) :   0.9736 B(  7-O ,  8-H ) :   0.8930

Dispersion correction           -0.000230990
FINAL SINGLE POINT ENERGY      -115.723959157786

DIPOLE MOMENT
-------------
                                X             Y             Z
Electronic contribution:     -0.56793       1.40837       0.30804
Nuclear contribution   :      0.51730      -1.87083      -0.84991
                        -----------------------------------------
Total Dipole Moment    :     -0.05063      -0.46247      -0.54188
                        -----------------------------------------
Magnitude (a.u.)       :      0.71419
Magnitude (Debye)      :      1.81533

Rotational constants in cm-1:     4.032947     0.798792     0.771470
Rotational constants in MHz : 120904.719873 23947.196509 23128.087732

                             ****ORCA TERMINATED NORMALLY****
TOTAL RUN TIME: 0 days 0 hours 1 minutes 6 seconds 527 msec
