                         Program Version 4.1.2  - RELEASE  -
|  1> #Run DFT-D3 single point of the dimer
|  2> ! wB97X-D3 def2-TZVP TIGHTSCF CHELPG PMODEL PAL8
|  3>
|  4> %base "18-116_DFT_AB"
|  5>
|  6> %scf
|  7> MaxIter 1000
|  8> end
|  9>
| 10> * xyz 0 1
| 11>   C                      1.536306             -11.056976           -5.681817
| 12>   O                      1.443532             -9.917052            -6.467092
| 13>   H                      2.378982             -9.721470            -6.647489
| 14>   H                      0.576598             -11.390417           -5.272839
| 15>   H                      1.904503             -11.918158           -6.229317
| 16>   H                      2.254301             -10.950616           -4.839417
| 17>   C                      -0.539133            -7.688683            -4.799626
| 18>   O                      -0.826148            -7.339370            -3.472543
| 19>   H                      -0.092567            -7.514396            -2.919946
| 20>   H                      0.276228             -7.070002            -5.204311
| 21>   H                      -0.270905            -8.740621            -4.841953
| 22>   H                      -1.338410            -7.548242            -5.437309
| 23> *
| 24>
| 25> #Run DFT-D3 single point of the molecule with dimer basis set
| 26> $new_job
| 27> %base "18-116_DFT_A"
| 28> ! wB97X-D3 def2-TZVP TIGHTSCF CHELPG PMODEL
| 29>
| 30> %scf
| 31> MaxIter 1000
| 32> end
| 33>
| 34> * xyz 0 1
| 35>   C                      1.536306             -11.056976           -5.681817
| 36>   O                      1.443532             -9.917052            -6.467092
| 37>   H                      2.378982             -9.721470            -6.647489
| 38>   H                      0.576598             -11.390417           -5.272839
| 39>   H                      1.904503             -11.918158           -6.229317
| 40>   H                      2.254301             -10.950616           -4.839417
| 41>   C                    : -0.539133            -7.688683            -4.799626
| 42>   O                    : -0.826148            -7.339370            -3.472543
| 43>   H                    : -0.092567            -7.514396            -2.919946
| 44>   H                    : 0.276228             -7.070002            -5.204311
| 45>   H                    : -0.270905            -8.740621            -4.841953
| 46>   H                    : -1.338410            -7.548242            -5.437309
| 47> *
| 48>
| 49> #Run DFT-D3 single point of the particle with dimer basis set
| 50> $new_job
| 51> %base "18-116_DFT_B"
| 52> ! wB97X-D3 def2-TZVP TIGHTSCF CHELPG PMODEL
| 53>
| 54> %scf
| 55> MaxIter 1000
| 56> end
| 57>
| 58> * xyz 0 1
| 59>   C                    : 1.536306             -11.056976           -5.681817
| 60>   O                    : 1.443532             -9.917052            -6.467092
| 61>   H                    : 2.378982             -9.721470            -6.647489
| 62>   H                    : 0.576598             -11.390417           -5.272839
| 63>   H                    : 1.904503             -11.918158           -6.229317
| 64>   H                    : 2.254301             -10.950616           -4.839417
| 65>   C                      -0.539133            -7.688683            -4.799626
| 66>   O                      -0.826148            -7.339370            -3.472543
| 67>   H                      -0.092567            -7.514396            -2.919946
| 68>   H                      0.276228             -7.070002            -5.204311
| 69>   H                      -0.270905            -8.740621            -4.841953
| 70>   H                      -1.338410            -7.548242            -5.437309
| 71> *
| 72>
| 73>                          ****END OF INPUT****
 Total Charge           Charge          ....    0
 Multiplicity           Mult            ....    1
 Number of Electrons    NEL             ....   36
Dispersion correction           -0.001610822
FINAL SINGLE POINT ENERGY      -231.468271920523
Dispersion correction           -0.000221920
FINAL SINGLE POINT ENERGY      -115.733899686882

CARTESIAN COORDINATES (ANGSTROEM)
---------------------------------
  C      1.536306  -11.056976   -5.681817
  O      1.443532   -9.917052   -6.467092
  H      2.378982   -9.721470   -6.647489
  H      0.576598  -11.390417   -5.272839
  H      1.904503  -11.918158   -6.229317
  H      2.254301  -10.950616   -4.839417
  C     -0.539133   -7.688683   -4.799626
  O     -0.826148   -7.339370   -3.472543
  H     -0.092567   -7.514396   -2.919946
  H      0.276228   -7.070002   -5.204311
  H     -0.270905   -8.740621   -4.841953
  H     -1.338410   -7.548242   -5.437309

 Multiplicity           Mult            ....    1
 Number of Electrons    NEL             ....   18
 Basis Dimension        Dim             ....  172

ORBITAL ENERGIES
----------------

  NO   OCC          E(Eh)            E(eV)
   0   2.0000     -19.224799      -523.1334
   1   2.0000     -10.305082      -280.4155
   2   2.0000      -1.141846       -31.0712
   3   2.0000      -0.804360       -21.8877
   4   2.0000      -0.613598       -16.6968
   5   2.0000      -0.546101       -14.8602
   6   2.0000      -0.539106       -14.6698
   7   2.0000      -0.429567       -11.6891
   8   2.0000      -0.372469       -10.1354
   9   0.0000       0.079674         2.1680
  10   0.0000       0.123628         3.3641
  11   0.0000       0.151322         4.1177
  12   0.0000       0.165586         4.5058
  13   0.0000       0.194902         5.3036

MULLIKEN ATOMIC CHARGES
-----------------------
   0 C :   -0.000403
   1 O :   -0.000723
   2 H :   -0.000196
   3 H :   -0.000389
   4 H :    0.000010
   5 H :   -0.000104
   6 C :   -0.150821
   7 O :   -0.476809
   8 H :    0.312519
   9 H :    0.095533
  10 H :    0.098564
  11 H :    0.122821
Sum of atomic charges:    0.0000000

LOEWDIN ATOMIC CHARGES
----------------------
   0 C :   -0.005328
   1 O :   -0.004032
   2 H :   -0.000343
   3 H :   -0.001230
   4 H :   -0.000068
   5 H :   -0.000174
   6 C :   -0.377721
   7 O :   -0.056081
   8 H :    0.152838
   9 H :    0.097937
  10 H :    0.099629
  11 H :    0.094573

  Mayer bond orders larger than 0.1
B(  6-C ,  7-O ) :   0.9947 B(  6-C ,  9-H ) :   0.9801 B(  6-C , 10-H ) :   0.9874
B(  6-C , 11-H ) :   0.9693 B(  7-O ,  8-H ) :   0.9030

Dispersion correction           -0.000226027
FINAL SINGLE POINT ENERGY      -115.733207173102

DIPOLE MOMENT
-------------
                                X             Y             Z
Electronic contribution:     -0.56664       0.49580       1.64030
Nuclear contribution   :      1.13475      -0.74910      -1.82522
                        -----------------------------------------
Total Dipole Moment    :      0.56811      -0.25330      -0.18491
                        -----------------------------------------
Magnitude (a.u.)       :      0.64892
Magnitude (Debye)      :      1.64943

Rotational constants in cm-1:     4.518328     0.840096     0.820133
Rotational constants in MHz : 135456.077280 25185.437271 24586.977924

                             ****ORCA TERMINATED NORMALLY****
TOTAL RUN TIME: 0 days 0 hours 1 minutes 7 seconds 823 msec
