                         Program Version 4.1.2  - RELEASE  -
|  1> #Run DFT-D3 single point of the dimer
|  2> ! wB97X-D3 def2-TZVP TIGHTSCF CHELPG PMODEL PAL8
|  3>
|  4> %base "15-88_DFT_AB"
|  5>
|  6> %scf
|  7> MaxIter 1000
|  8> end
|  9>
| 10> * xyz 0 1
| 11>   C                      -3.485730            -1.394707            -9.730617
| 12>   O                      -2.209008            -1.200329            -10.263792
| 13>   H                      -1.614533            -1.875366            -9.926658
| 14>   H                      -4.240539            -0.844386            -10.235814
| 15>   H                      -3.804167            -2.419185            -9.794614
| 16>   H                      -3.535408            -1.094552            -8.687688
| 17>   C                      -5.228021            -5.201579            -7.289716
| 18>   O                      -5.730064            -6.451486            -7.748698
| 19>   H                      -5.272211            -6.676350            -8.575378
| 20>   H                      -4.370147            -5.383258            -6.565154
| 21>   H                      -4.907543            -4.739476            -8.134472
| 22>   H                      -5.945658            -4.573453            -6.762848
| 23> *
| 24>
| 25> #Run DFT-D3 single point of the molecule with dimer basis set
| 26> $new_job
| 27> %base "15-88_DFT_A"
| 28> ! wB97X-D3 def2-TZVP TIGHTSCF CHELPG PMODEL
| 29>
| 30> %scf
| 31> MaxIter 1000
| 32> end
| 33>
| 34> * xyz 0 1
| 35>   C                      -3.485730            -1.394707            -9.730617
| 36>   O                      -2.209008            -1.200329            -10.263792
| 37>   H                      -1.614533            -1.875366            -9.926658
| 38>   H                      -4.240539            -0.844386            -10.235814
| 39>   H                      -3.804167            -2.419185            -9.794614
| 40>   H                      -3.535408            -1.094552            -8.687688
| 41>   C                    : -5.228021            -5.201579            -7.289716
| 42>   O                    : -5.730064            -6.451486            -7.748698
| 43>   H                    : -5.272211            -6.676350            -8.575378
| 44>   H                    : -4.370147            -5.383258            -6.565154
| 45>   H                    : -4.907543            -4.739476            -8.134472
| 46>   H                    : -5.945658            -4.573453            -6.762848
| 47> *
| 48>
| 49> #Run DFT-D3 single point of the particle with dimer basis set
| 50> $new_job
| 51> %base "15-88_DFT_B"
| 52> ! wB97X-D3 def2-TZVP TIGHTSCF CHELPG PMODEL
| 53>
| 54> %scf
| 55> MaxIter 1000
| 56> end
| 57>
| 58> * xyz 0 1
| 59>   C                    : -3.485730            -1.394707            -9.730617
| 60>   O                    : -2.209008            -1.200329            -10.263792
| 61>   H                    : -1.614533            -1.875366            -9.926658
| 62>   H                    : -4.240539            -0.844386            -10.235814
| 63>   H                    : -3.804167            -2.419185            -9.794614
| 64>   H                    : -3.535408            -1.094552            -8.687688
| 65>   C                      -5.228021            -5.201579            -7.289716
| 66>   O                      -5.730064            -6.451486            -7.748698
| 67>   H                      -5.272211            -6.676350            -8.575378
| 68>   H                      -4.370147            -5.383258            -6.565154
| 69>   H                      -4.907543            -4.739476            -8.134472
| 70>   H                      -5.945658            -4.573453            -6.762848
| 71> *
| 72>
| 73>                          ****END OF INPUT****
 Total Charge           Charge          ....    0
 Multiplicity           Mult            ....    1
 Number of Electrons    NEL             ....   36
Dispersion correction           -0.000869376
FINAL SINGLE POINT ENERGY      -231.462447667324
Dispersion correction           -0.000232783
FINAL SINGLE POINT ENERGY      -115.735193635482

CARTESIAN COORDINATES (ANGSTROEM)
---------------------------------
  C     -3.485730   -1.394707   -9.730617
  O     -2.209008   -1.200329  -10.263792
  H     -1.614533   -1.875366   -9.926658
  H     -4.240539   -0.844386  -10.235814
  H     -3.804167   -2.419185   -9.794614
  H     -3.535408   -1.094552   -8.687688
  C     -5.228021   -5.201579   -7.289716
  O     -5.730064   -6.451486   -7.748698
  H     -5.272211   -6.676350   -8.575378
  H     -4.370147   -5.383258   -6.565154
  H     -4.907543   -4.739476   -8.134472
  H     -5.945658   -4.573453   -6.762848

 Multiplicity           Mult            ....    1
 Number of Electrons    NEL             ....   18
 Basis Dimension        Dim             ....  172

ORBITAL ENERGIES
----------------

  NO   OCC          E(Eh)            E(eV)
   0   2.0000     -19.227702      -523.2124
   1   2.0000     -10.309225      -280.5283
   2   2.0000      -1.130840       -30.7717
   3   2.0000      -0.796986       -21.6871
   4   2.0000      -0.610350       -16.6085
   5   2.0000      -0.541743       -14.7416
   6   2.0000      -0.533255       -14.5106
   7   2.0000      -0.430780       -11.7221
   8   2.0000      -0.370145       -10.0722
   9   0.0000       0.080691         2.1957
  10   0.0000       0.113808         3.0969
  11   0.0000       0.149026         4.0552
  12   0.0000       0.164190         4.4678
  13   0.0000       0.183051         4.9811

MULLIKEN ATOMIC CHARGES
-----------------------
   0 C :    0.000344
   1 O :   -0.000006
   2 H :   -0.000008
   3 H :   -0.000034
   4 H :   -0.000836
   5 H :   -0.000027
   6 C :   -0.155260
   7 O :   -0.480656
   8 H :    0.316658
   9 H :    0.095490
  10 H :    0.106885
  11 H :    0.117449
Sum of atomic charges:    0.0000000

LOEWDIN ATOMIC CHARGES
----------------------
   0 C :   -0.000382
   1 O :   -0.000005
   2 H :   -0.000001
   3 H :   -0.000003
   4 H :   -0.000871
   5 H :   -0.000032
   6 C :   -0.368340
   7 O :   -0.093063
   8 H :    0.175128
   9 H :    0.103949
  10 H :    0.079067
  11 H :    0.104553

  Mayer bond orders larger than 0.1
B(  6-C ,  7-O ) :   1.0004 B(  6-C ,  9-H ) :   0.9748 B(  6-C , 10-H ) :   0.9957
B(  6-C , 11-H ) :   0.9709 B(  7-O ,  8-H ) :   0.8986

Dispersion correction           -0.000233744
FINAL SINGLE POINT ENERGY      -115.727136069991

DIPOLE MOMENT
-------------
                                X             Y             Z
Electronic contribution:     -0.79749      -1.48080      -0.51057
Nuclear contribution   :      1.27841       1.86868       0.13616
                        -----------------------------------------
Total Dipole Moment    :      0.48091       0.38789      -0.37440
                        -----------------------------------------
Magnitude (a.u.)       :      0.72244
Magnitude (Debye)      :      1.83628

Rotational constants in cm-1:     4.357976     0.824896     0.801202
Rotational constants in MHz : 130648.846734 24729.765612 24019.438240

                             ****ORCA TERMINATED NORMALLY****
TOTAL RUN TIME: 0 days 0 hours 1 minutes 2 seconds 907 msec
