                         Program Version 4.1.2  - RELEASE  -
|  1> #Run DFT-D3 single point of the dimer
|  2> ! wB97X-D3 def2-TZVP TIGHTSCF CHELPG PMODEL PAL8
|  3>
|  4> %base "7-9_DFT_AB"
|  5>
|  6> %scf
|  7> MaxIter 1000
|  8> end
|  9>
| 10> * xyz 0 1
| 11>   C                      0.107441             2.741054             -3.055841
| 12>   O                      0.093632             2.479985             -1.676650
| 13>   H                      -0.116713            3.352322             -1.369150
| 14>   H                      0.781831             3.560905             -3.329535
| 15>   H                      0.429337             1.873700             -3.602147
| 16>   H                      -0.921354            2.900499             -3.482296
| 17>   C                      -3.322712            4.496069             -1.381422
| 18>   O                      -4.046440            3.672575             -2.286686
| 19>   H                      -4.540441            2.947560             -1.866418
| 20>   H                      -2.791277            5.191939             -2.030407
| 21>   H                      -4.010575            5.026944             -0.666010
| 22>   H                      -2.645470            3.961505             -0.674929
| 23> *
| 24>
| 25> #Run DFT-D3 single point of the molecule with dimer basis set
| 26> $new_job
| 27> %base "7-9_DFT_A"
| 28> ! wB97X-D3 def2-TZVP TIGHTSCF CHELPG PMODEL
| 29>
| 30> %scf
| 31> MaxIter 1000
| 32> end
| 33>
| 34> * xyz 0 1
| 35>   C                      0.107441             2.741054             -3.055841
| 36>   O                      0.093632             2.479985             -1.676650
| 37>   H                      -0.116713            3.352322             -1.369150
| 38>   H                      0.781831             3.560905             -3.329535
| 39>   H                      0.429337             1.873700             -3.602147
| 40>   H                      -0.921354            2.900499             -3.482296
| 41>   C                    : -3.322712            4.496069             -1.381422
| 42>   O                    : -4.046440            3.672575             -2.286686
| 43>   H                    : -4.540441            2.947560             -1.866418
| 44>   H                    : -2.791277            5.191939             -2.030407
| 45>   H                    : -4.010575            5.026944             -0.666010
| 46>   H                    : -2.645470            3.961505             -0.674929
| 47> *
| 48>
| 49> #Run DFT-D3 single point of the particle with dimer basis set
| 50> $new_job
| 51> %base "7-9_DFT_B"
| 52> ! wB97X-D3 def2-TZVP TIGHTSCF CHELPG PMODEL
| 53>
| 54> %scf
| 55> MaxIter 1000
| 56> end
| 57>
| 58> * xyz 0 1
| 59>   C                    : 0.107441             2.741054             -3.055841
| 60>   O                    : 0.093632             2.479985             -1.676650
| 61>   H                    : -0.116713            3.352322             -1.369150
| 62>   H                    : 0.781831             3.560905             -3.329535
| 63>   H                    : 0.429337             1.873700             -3.602147
| 64>   H                    : -0.921354            2.900499             -3.482296
| 65>   C                      -3.322712            4.496069             -1.381422
| 66>   O                      -4.046440            3.672575             -2.286686
| 67>   H                      -4.540441            2.947560             -1.866418
| 68>   H                      -2.791277            5.191939             -2.030407
| 69>   H                      -4.010575            5.026944             -0.666010
| 70>   H                      -2.645470            3.961505             -0.674929
| 71> *
| 72>
| 73>                          ****END OF INPUT****
 Total Charge           Charge          ....    0
 Multiplicity           Mult            ....    1
 Number of Electrons    NEL             ....   36
Dispersion correction           -0.001646571
FINAL SINGLE POINT ENERGY      -231.468170173490
Dispersion correction           -0.000223019
FINAL SINGLE POINT ENERGY      -115.732918506683

CARTESIAN COORDINATES (ANGSTROEM)
---------------------------------
  C      0.107441    2.741054   -3.055841
  O      0.093632    2.479985   -1.676650
  H     -0.116713    3.352322   -1.369150
  H      0.781831    3.560905   -3.329535
  H      0.429337    1.873700   -3.602147
  H     -0.921354    2.900499   -3.482296
  C     -3.322712    4.496069   -1.381422
  O     -4.046440    3.672575   -2.286686
  H     -4.540441    2.947560   -1.866418
  H     -2.791277    5.191939   -2.030407
  H     -4.010575    5.026944   -0.666010
  H     -2.645470    3.961505   -0.674929

 Multiplicity           Mult            ....    1
 Number of Electrons    NEL             ....   18
 Basis Dimension        Dim             ....  172

ORBITAL ENERGIES
----------------

  NO   OCC          E(Eh)            E(eV)
   0   2.0000     -19.230372      -523.2850
   1   2.0000     -10.319855      -280.8175
   2   2.0000      -1.128231       -30.7007
   3   2.0000      -0.794159       -21.6102
   4   2.0000      -0.613964       -16.7068
   5   2.0000      -0.528335       -14.3767
   6   2.0000      -0.524303       -14.2670
   7   2.0000      -0.433963       -11.8087
   8   2.0000      -0.369911       -10.0658
   9   0.0000       0.089740         2.4419
  10   0.0000       0.118829         3.2335
  11   0.0000       0.148469         4.0401
  12   0.0000       0.174205         4.7404
  13   0.0000       0.192171         5.2292

MULLIKEN ATOMIC CHARGES
-----------------------
   0 C :    0.000621
   1 O :    0.000312
   2 H :   -0.001221
   3 H :   -0.000021
   4 H :    0.000006
   5 H :   -0.001932
   6 C :   -0.151471
   7 O :   -0.487304
   8 H :    0.315688
   9 H :    0.126141
  10 H :    0.098853
  11 H :    0.100328
Sum of atomic charges:   -0.0000000

LOEWDIN ATOMIC CHARGES
----------------------
   0 C :   -0.000781
   1 O :   -0.000357
   2 H :   -0.002643
   3 H :   -0.000014
   4 H :   -0.000003
   5 H :   -0.001484
   6 C :   -0.383533
   7 O :   -0.088742
   8 H :    0.171678
   9 H :    0.111186
  10 H :    0.098046
  11 H :    0.096647

  Mayer bond orders larger than 0.1
B(  6-C ,  7-O ) :   0.9893 B(  6-C ,  9-H ) :   0.9759 B(  6-C , 10-H ) :   0.9713
B(  6-C , 11-H ) :   0.9686 B(  7-O ,  8-H ) :   0.8927

Dispersion correction           -0.000272285
FINAL SINGLE POINT ENERGY      -115.733699984205

DIPOLE MOMENT
-------------
                                X             Y             Z
Electronic contribution:     -0.81164      -0.97468      -1.28980
Nuclear contribution   :      0.77951       0.83505       1.92556
                        -----------------------------------------
Total Dipole Moment    :     -0.03213      -0.13963       0.63576
                        -----------------------------------------
Magnitude (a.u.)       :      0.65170
Magnitude (Debye)      :      1.65649

Rotational constants in cm-1:     4.234406     0.818168     0.781882
Rotational constants in MHz : 126944.300359 24528.050547 23440.218162

                             ****ORCA TERMINATED NORMALLY****
TOTAL RUN TIME: 0 days 0 hours 0 minutes 58 seconds 507 msec
