                         Program Version 4.1.2  - RELEASE  -
|  1> #Run DFT-D3 single point of the dimer
|  2> ! wB97X-D3 def2-TZVP TIGHTSCF CHELPG PMODEL PAL8
|  3>
|  4> %base "12-24_DFT_AB"
|  5>
|  6> %scf
|  7> MaxIter 1000
|  8> end
|  9>
| 10> * xyz 0 1
| 11>   C                      5.213601             -6.424230            1.445439
| 12>   O                      5.630218             -5.208946            2.075847
| 13>   H                      5.563530             -4.576802            1.354313
| 14>   H                      5.329758             -7.331916            2.140380
| 15>   H                      4.144093             -6.377885            1.182249
| 16>   H                      5.866397             -6.714165            0.524728
| 17>   C                      7.566855             -10.671953           5.258206
| 18>   O                      8.533539             -11.417069           4.554031
| 19>   H                      8.717924             -12.189385           5.085926
| 20>   H                      7.317349             -9.699683            4.781682
| 21>   H                      6.551166             -11.059045           5.457946
| 22>   H                      8.008899             -10.366633           6.233793
| 23> *
| 24>
| 25> #Run DFT-D3 single point of the molecule with dimer basis set
| 26> $new_job
| 27> %base "12-24_DFT_A"
| 28> ! wB97X-D3 def2-TZVP TIGHTSCF CHELPG PMODEL
| 29>
| 30> %scf
| 31> MaxIter 1000
| 32> end
| 33>
| 34> * xyz 0 1
| 35>   C                      5.213601             -6.424230            1.445439
| 36>   O                      5.630218             -5.208946            2.075847
| 37>   H                      5.563530             -4.576802            1.354313
| 38>   H                      5.329758             -7.331916            2.140380
| 39>   H                      4.144093             -6.377885            1.182249
| 40>   H                      5.866397             -6.714165            0.524728
| 41>   C                    : 7.566855             -10.671953           5.258206
| 42>   O                    : 8.533539             -11.417069           4.554031
| 43>   H                    : 8.717924             -12.189385           5.085926
| 44>   H                    : 7.317349             -9.699683            4.781682
| 45>   H                    : 6.551166             -11.059045           5.457946
| 46>   H                    : 8.008899             -10.366633           6.233793
| 47> *
| 48>
| 49> #Run DFT-D3 single point of the particle with dimer basis set
| 50> $new_job
| 51> %base "12-24_DFT_B"
| 52> ! wB97X-D3 def2-TZVP TIGHTSCF CHELPG PMODEL
| 53>
| 54> %scf
| 55> MaxIter 1000
| 56> end
| 57>
| 58> * xyz 0 1
| 59>   C                    : 5.213601             -6.424230            1.445439
| 60>   O                    : 5.630218             -5.208946            2.075847
| 61>   H                    : 5.563530             -4.576802            1.354313
| 62>   H                    : 5.329758             -7.331916            2.140380
| 63>   H                    : 4.144093             -6.377885            1.182249
| 64>   H                    : 5.866397             -6.714165            0.524728
| 65>   C                      7.566855             -10.671953           5.258206
| 66>   O                      8.533539             -11.417069           4.554031
| 67>   H                      8.717924             -12.189385           5.085926
| 68>   H                      7.317349             -9.699683            4.781682
| 69>   H                      6.551166             -11.059045           5.457946
| 70>   H                      8.008899             -10.366633           6.233793
| 71> *
| 72>
| 73>                          ****END OF INPUT****
 Total Charge           Charge          ....    0
 Multiplicity           Mult            ....    1
 Number of Electrons    NEL             ....   36
Dispersion correction           -0.000625532
FINAL SINGLE POINT ENERGY      -231.461700429837
Dispersion correction           -0.000260361
FINAL SINGLE POINT ENERGY      -115.730520269805

CARTESIAN COORDINATES (ANGSTROEM)
---------------------------------
  C      5.213601   -6.424230    1.445439
  O      5.630218   -5.208946    2.075847
  H      5.563530   -4.576802    1.354313
  H      5.329758   -7.331916    2.140380
  H      4.144093   -6.377885    1.182249
  H      5.866397   -6.714165    0.524728
  C      7.566855  -10.671953    5.258206
  O      8.533539  -11.417069    4.554031
  H      8.717924  -12.189385    5.085926
  H      7.317349   -9.699683    4.781682
  H      6.551166  -11.059045    5.457946
  H      8.008899  -10.366633    6.233793

 Multiplicity           Mult            ....    1
 Number of Electrons    NEL             ....   18
 Basis Dimension        Dim             ....  172

ORBITAL ENERGIES
----------------

  NO   OCC          E(Eh)            E(eV)
   0   2.0000     -19.236309      -523.4466
   1   2.0000     -10.317786      -280.7612
   2   2.0000      -1.142520       -31.0895
   3   2.0000      -0.794602       -21.6222
   4   2.0000      -0.614060       -16.7094
   5   2.0000      -0.541501       -14.7350
   6   2.0000      -0.525095       -14.2886
   7   2.0000      -0.430486       -11.7141
   8   2.0000      -0.376408       -10.2426
   9   0.0000       0.086718         2.3597
  10   0.0000       0.116444         3.1686
  11   0.0000       0.141344         3.8462
  12   0.0000       0.167262         4.5514
  13   0.0000       0.186626         5.0784

MULLIKEN ATOMIC CHARGES
-----------------------
   0 C :    0.000009
   1 O :    0.000001
   2 H :    0.000000
   3 H :   -0.000069
   4 H :   -0.000001
   5 H :    0.000000
   6 C :   -0.171674
   7 O :   -0.459194
   8 H :    0.316674
   9 H :    0.117050
  10 H :    0.100840
  11 H :    0.096363
Sum of atomic charges:   -0.0000000

LOEWDIN ATOMIC CHARGES
----------------------
   0 C :   -0.000011
   1 O :   -0.000000
   2 H :   -0.000000
   3 H :   -0.000066
   4 H :   -0.000000
   5 H :   -0.000000
   6 C :   -0.408002
   7 O :   -0.065412
   8 H :    0.169845
   9 H :    0.111461
  10 H :    0.094670
  11 H :    0.097516

  Mayer bond orders larger than 0.1
B(  6-C ,  7-O ) :   1.0106 B(  6-C ,  9-H ) :   0.9740 B(  6-C , 10-H ) :   0.9621
B(  6-C , 11-H ) :   0.9862 B(  7-O ,  8-H ) :   0.8987

Dispersion correction           -0.000264789
FINAL SINGLE POINT ENERGY      -115.730989775944

DIPOLE MOMENT
-------------
                                X             Y             Z
Electronic contribution:      1.28238      -1.06352      -1.14669
Nuclear contribution   :     -1.53541       0.87679       1.74582
                        -----------------------------------------
Total Dipole Moment    :     -0.25304      -0.18673       0.59913
                        -----------------------------------------
Magnitude (a.u.)       :      0.67665
Magnitude (Debye)      :      1.71991

Rotational constants in cm-1:     4.417249     0.816359     0.791903
Rotational constants in MHz : 132425.783468 24473.826324 23740.647595

                             ****ORCA TERMINATED NORMALLY****
TOTAL RUN TIME: 0 days 0 hours 1 minutes 3 seconds 672 msec
