                         Program Version 4.1.2  - RELEASE  -
|  1> #Run DFT-D3 single point of the dimer
|  2> ! wB97X-D3 def2-TZVP TIGHTSCF CHELPG PMODEL PAL8
|  3>
|  4> %base "19-91_DFT_AB"
|  5>
|  6> %scf
|  7> MaxIter 1000
|  8> end
|  9>
| 10> * xyz 0 1
| 11>   C                      1.790265             3.458561             8.299905
| 12>   O                      0.760315             4.348827             7.951540
| 13>   H                      0.700689             4.320397             6.985783
| 14>   H                      2.747720             4.048782             8.453165
| 15>   H                      1.540345             2.807398             9.173545
| 16>   H                      2.017215             2.823354             7.489023
| 17>   C                      2.133361             7.137426             6.794470
| 18>   O                      3.422089             7.275639             7.377078
| 19>   H                      3.459965             6.780640             8.178787
| 20>   H                      2.011717             6.085576             6.397610
| 21>   H                      1.310506             7.357630             7.547516
| 22>   H                      2.139126             7.935520             6.013690
| 23> *
| 24>
| 25> #Run DFT-D3 single point of the molecule with dimer basis set
| 26> $new_job
| 27> %base "19-91_DFT_A"
| 28> ! wB97X-D3 def2-TZVP TIGHTSCF CHELPG PMODEL
| 29>
| 30> %scf
| 31> MaxIter 1000
| 32> end
| 33>
| 34> * xyz 0 1
| 35>   C                      1.790265             3.458561             8.299905
| 36>   O                      0.760315             4.348827             7.951540
| 37>   H                      0.700689             4.320397             6.985783
| 38>   H                      2.747720             4.048782             8.453165
| 39>   H                      1.540345             2.807398             9.173545
| 40>   H                      2.017215             2.823354             7.489023
| 41>   C                    : 2.133361             7.137426             6.794470
| 42>   O                    : 3.422089             7.275639             7.377078
| 43>   H                    : 3.459965             6.780640             8.178787
| 44>   H                    : 2.011717             6.085576             6.397610
| 45>   H                    : 1.310506             7.357630             7.547516
| 46>   H                    : 2.139126             7.935520             6.013690
| 47> *
| 48>
| 49> #Run DFT-D3 single point of the particle with dimer basis set
| 50> $new_job
| 51> %base "19-91_DFT_B"
| 52> ! wB97X-D3 def2-TZVP TIGHTSCF CHELPG PMODEL
| 53>
| 54> %scf
| 55> MaxIter 1000
| 56> end
| 57>
| 58> * xyz 0 1
| 59>   C                    : 1.790265             3.458561             8.299905
| 60>   O                    : 0.760315             4.348827             7.951540
| 61>   H                    : 0.700689             4.320397             6.985783
| 62>   H                    : 2.747720             4.048782             8.453165
| 63>   H                    : 1.540345             2.807398             9.173545
| 64>   H                    : 2.017215             2.823354             7.489023
| 65>   C                      2.133361             7.137426             6.794470
| 66>   O                      3.422089             7.275639             7.377078
| 67>   H                      3.459965             6.780640             8.178787
| 68>   H                      2.011717             6.085576             6.397610
| 69>   H                      1.310506             7.357630             7.547516
| 70>   H                      2.139126             7.935520             6.013690
| 71> *
| 72>
| 73>                          ****END OF INPUT****
 Total Charge           Charge          ....    0
 Multiplicity           Mult            ....    1
 Number of Electrons    NEL             ....   36
Dispersion correction           -0.002061849
FINAL SINGLE POINT ENERGY      -231.466800150940
Dispersion correction           -0.000237640
FINAL SINGLE POINT ENERGY      -115.732145052590

CARTESIAN COORDINATES (ANGSTROEM)
---------------------------------
  C      1.790265    3.458561    8.299905
  O      0.760315    4.348827    7.951540
  H      0.700689    4.320397    6.985783
  H      2.747720    4.048782    8.453165
  H      1.540345    2.807398    9.173545
  H      2.017215    2.823354    7.489023
  C      2.133361    7.137426    6.794470
  O      3.422089    7.275639    7.377078
  H      3.459965    6.780640    8.178787
  H      2.011717    6.085576    6.397610
  H      1.310506    7.357630    7.547516
  H      2.139126    7.935520    6.013690

 Multiplicity           Mult            ....    1
 Number of Electrons    NEL             ....   18
 Basis Dimension        Dim             ....  172

ORBITAL ENERGIES
----------------

  NO   OCC          E(Eh)            E(eV)
   0   2.0000     -19.226598      -523.1823
   1   2.0000     -10.325172      -280.9622
   2   2.0000      -1.136558       -30.9273
   3   2.0000      -0.789126       -21.4732
   4   2.0000      -0.609230       -16.5780
   5   2.0000      -0.539594       -14.6831
   6   2.0000      -0.518442       -14.1075
   7   2.0000      -0.433279       -11.7901
   8   2.0000      -0.372702       -10.1417
   9   0.0000       0.076258         2.0751
  10   0.0000       0.126950         3.4545
  11   0.0000       0.144126         3.9219
  12   0.0000       0.176722         4.8088
  13   0.0000       0.185844         5.0571

MULLIKEN ATOMIC CHARGES
-----------------------
   0 C :    0.002214
   1 O :   -0.000974
   2 H :   -0.002239
   3 H :   -0.002230
   4 H :    0.000054
   5 H :   -0.000209
   6 C :   -0.163901
   7 O :   -0.471752
   8 H :    0.308547
   9 H :    0.105600
  10 H :    0.100160
  11 H :    0.124731
Sum of atomic charges:   -0.0000000

LOEWDIN ATOMIC CHARGES
----------------------
   0 C :   -0.002266
   1 O :   -0.004006
   2 H :   -0.006085
   3 H :   -0.001523
   4 H :   -0.000014
   5 H :   -0.000088
   6 C :   -0.383824
   7 O :   -0.076498
   8 H :    0.152383
   9 H :    0.105377
  10 H :    0.101571
  11 H :    0.114974

  Mayer bond orders larger than 0.1
B(  6-C ,  7-O ) :   0.9938 B(  6-C ,  9-H ) :   0.9700 B(  6-C , 10-H ) :   0.9719
B(  6-C , 11-H ) :   0.9732 B(  7-O ,  8-H ) :   0.9058

Dispersion correction           -0.000247030
FINAL SINGLE POINT ENERGY      -115.733623586700

DIPOLE MOMENT
-------------
                                X             Y             Z
Electronic contribution:      1.61575       0.22497       0.59039
Nuclear contribution   :     -2.08733      -0.57790      -0.30072
                        -----------------------------------------
Total Dipole Moment    :     -0.47157      -0.35293       0.28967
                        -----------------------------------------
Magnitude (a.u.)       :      0.65639
Magnitude (Debye)      :      1.66842

Rotational constants in cm-1:     4.002545     0.828592     0.800489
Rotational constants in MHz : 119993.290548 24840.562969 23998.044546

                             ****ORCA TERMINATED NORMALLY****
TOTAL RUN TIME: 0 days 0 hours 0 minutes 54 seconds 616 msec
