                         Program Version 4.1.2  - RELEASE  -
|  1> #Run DFT-D3 single point of the dimer
|  2> ! wB97X-D3 def2-TZVP TIGHTSCF CHELPG PMODEL PAL8
|  3>
|  4> %base "4-101_DFT_AB"
|  5>
|  6> %scf
|  7> MaxIter 1000
|  8> end
|  9>
| 10> * xyz 0 1
| 11>   C                      8.304697             0.773642             -7.879795
| 12>   O                      7.697569             -0.052126            -8.879199
| 13>   H                      7.046114             -0.492704            -8.416586
| 14>   H                      8.728058             0.224718             -7.058519
| 15>   H                      9.138744             1.205424             -8.296531
| 16>   H                      7.608282             1.530593             -7.478363
| 17>   C                      5.319843             0.594491             -4.975979
| 18>   O                      6.404372             1.551814             -5.177278
| 19>   H                      6.082201             2.384677             -4.757944
| 20>   H                      5.256007             0.201112             -3.910968
| 21>   H                      4.395750             1.121554             -5.168776
| 22>   H                      5.517838             -0.312185            -5.654065
| 23> *
| 24>
| 25> #Run DFT-D3 single point of the molecule with dimer basis set
| 26> $new_job
| 27> %base "4-101_DFT_A"
| 28> ! wB97X-D3 def2-TZVP TIGHTSCF CHELPG PMODEL
| 29>
| 30> %scf
| 31> MaxIter 1000
| 32> end
| 33>
| 34> * xyz 0 1
| 35>   C                      8.304697             0.773642             -7.879795
| 36>   O                      7.697569             -0.052126            -8.879199
| 37>   H                      7.046114             -0.492704            -8.416586
| 38>   H                      8.728058             0.224718             -7.058519
| 39>   H                      9.138744             1.205424             -8.296531
| 40>   H                      7.608282             1.530593             -7.478363
| 41>   C                    : 5.319843             0.594491             -4.975979
| 42>   O                    : 6.404372             1.551814             -5.177278
| 43>   H                    : 6.082201             2.384677             -4.757944
| 44>   H                    : 5.256007             0.201112             -3.910968
| 45>   H                    : 4.395750             1.121554             -5.168776
| 46>   H                    : 5.517838             -0.312185            -5.654065
| 47> *
| 48>
| 49> #Run DFT-D3 single point of the particle with dimer basis set
| 50> $new_job
| 51> %base "4-101_DFT_B"
| 52> ! wB97X-D3 def2-TZVP TIGHTSCF CHELPG PMODEL
| 53>
| 54> %scf
| 55> MaxIter 1000
| 56> end
| 57>
| 58> * xyz 0 1
| 59>   C                    : 8.304697             0.773642             -7.879795
| 60>   O                    : 7.697569             -0.052126            -8.879199
| 61>   H                    : 7.046114             -0.492704            -8.416586
| 62>   H                    : 8.728058             0.224718             -7.058519
| 63>   H                    : 9.138744             1.205424             -8.296531
| 64>   H                    : 7.608282             1.530593             -7.478363
| 65>   C                      5.319843             0.594491             -4.975979
| 66>   O                      6.404372             1.551814             -5.177278
| 67>   H                      6.082201             2.384677             -4.757944
| 68>   H                      5.256007             0.201112             -3.910968
| 69>   H                      4.395750             1.121554             -5.168776
| 70>   H                      5.517838             -0.312185            -5.654065
| 71> *
| 72>
| 73>                          ****END OF INPUT****
 Total Charge           Charge          ....    0
 Multiplicity           Mult            ....    1
 Number of Electrons    NEL             ....   36
Dispersion correction           -0.001720060
FINAL SINGLE POINT ENERGY      -231.462291575068
Dispersion correction           -0.000227093
FINAL SINGLE POINT ENERGY      -115.730017277346

CARTESIAN COORDINATES (ANGSTROEM)
---------------------------------
  C      8.304697    0.773642   -7.879795
  O      7.697569   -0.052126   -8.879199
  H      7.046114   -0.492704   -8.416586
  H      8.728058    0.224718   -7.058519
  H      9.138744    1.205424   -8.296531
  H      7.608282    1.530593   -7.478363
  C      5.319843    0.594491   -4.975979
  O      6.404372    1.551814   -5.177278
  H      6.082201    2.384677   -4.757944
  H      5.256007    0.201112   -3.910968
  H      4.395750    1.121554   -5.168776
  H      5.517838   -0.312185   -5.654065

 Multiplicity           Mult            ....    1
 Number of Electrons    NEL             ....   18
 Basis Dimension        Dim             ....  172

ORBITAL ENERGIES
----------------

  NO   OCC          E(Eh)            E(eV)
   0   2.0000     -19.234001      -523.3838
   1   2.0000     -10.326487      -280.9980
   2   2.0000      -1.120520       -30.4909
   3   2.0000      -0.786591       -21.4042
   4   2.0000      -0.601301       -16.3622
   5   2.0000      -0.534170       -14.5355
   6   2.0000      -0.514065       -13.9884
   7   2.0000      -0.440979       -11.9996
   8   2.0000      -0.372819       -10.1449
   9   0.0000       0.093949         2.5565
  10   0.0000       0.120957         3.2914
  11   0.0000       0.146379         3.9832
  12   0.0000       0.174604         4.7512
  13   0.0000       0.197578         5.3764

MULLIKEN ATOMIC CHARGES
-----------------------
   0 C :    0.006630
   1 O :   -0.000155
   2 H :   -0.000428
   3 H :   -0.002369
   4 H :   -0.000531
   5 H :   -0.010793
   6 C :   -0.180659
   7 O :   -0.465677
   8 H :    0.310990
   9 H :    0.102633
  10 H :    0.112414
  11 H :    0.127945
Sum of atomic charges:    0.0000000

LOEWDIN ATOMIC CHARGES
----------------------
   0 C :   -0.006601
   1 O :   -0.000046
   2 H :   -0.000372
   3 H :   -0.001003
   4 H :   -0.000041
   5 H :   -0.010600
   6 C :   -0.366323
   7 O :   -0.108773
   8 H :    0.180092
   9 H :    0.100863
  10 H :    0.092711
  11 H :    0.120092

  Mayer bond orders larger than 0.1
B(  6-C ,  7-O ) :   0.9919 B(  6-C ,  9-H ) :   0.9625 B(  6-C , 10-H ) :   0.9797
B(  6-C , 11-H ) :   0.9722 B(  7-O ,  8-H ) :   0.8987

Dispersion correction           -0.000259122
FINAL SINGLE POINT ENERGY      -115.730475515664

DIPOLE MOMENT
-------------
                                X             Y             Z
Electronic contribution:      1.39122       1.08162      -0.37145
Nuclear contribution   :     -2.04674      -0.95297       0.71353
                        -----------------------------------------
Total Dipole Moment    :     -0.65552       0.12865       0.34208
                        -----------------------------------------
Magnitude (a.u.)       :      0.75051
Magnitude (Debye)      :      1.90765

Rotational constants in cm-1:     3.998335     0.794517     0.756373
Rotational constants in MHz : 119867.068437 23819.033386 22675.495803

                             ****ORCA TERMINATED NORMALLY****
TOTAL RUN TIME: 0 days 0 hours 1 minutes 36 seconds 963 msec
